------------------------------------------------------------
          Invoking FHI-aims ...

          When using FHI-aims, please cite the following reference:

            Volker Blum, Ralf Gehrke, Felix Hanke, Paula Havu,
            Ville Havu, Xinguo Ren, Karsten Reuter, and Matthias Scheffler,
            'Ab Initio Molecular Simulations with Numeric Atom-Centered Orbitals',
            Computer Physics Communications 180, 2175-2196 (2009)

          In addition, many other developments in FHI-aims are likely important for
          your particular application. A partial list of references is given at the end of
          this file. Thank you for giving credit to the authors of these developments.

          For any questions about FHI-aims, please visit our slack channel at

            https://fhi-aims.slack.com

          and our main development and support site at

            https://aims-git.rz-berlin.mpg.de .

          The latter site, in particular, has a wiki to collect information, as well
          as an issue tracker to log discussions, suggest improvements, and report issues
          or bugs. https://aims-git.rz-berlin.mpg.de is also the main development site
          of the project and all new and updated code versions can be obtained there.
          Please send an email to aims-coordinators@fhi-berlin.mpg.de and we will add
          you to these sites. They are for you and everyone is welcome there.

------------------------------------------------------------



  Date     :  20220323, Time     :  115332.463
  Time zero on CPU 1             :   0.161307100000000E+01  s.
  Internal wall clock time zero  :           417268412.463  s.

  FHI-aims created a unique identifier for this run for later identification
  aims_uuid : B03F8FA3-5287-4879-A82D-936AF535FB5D

  Build configuration of the current instance of FHI-aims
  -------------------------------------------------------
  FHI-aims version      : 210716.2
  Commit number         : GITDIR-NOTFOUND
  CMake host system     : Linux-4.18.0-305.12.1.el8_4.x86_64
  CMake version         : 3.21.1
  Fortran compiler      : /sulis/institutions/warwick/easybuild/software/OpenMPI/4.1.1-GCC-11.2.0/bin/mpifort (GNU) version 11.2.0
  Fortran compiler flags: -O3 -march=native -mno-recip -I$(EBROOTHDF5)/include -fallow-argument-mismatch -ffree-line-length-none -O3 -DNDEBUG -O3
  C compiler            : /sulis/institutions/warwick/easybuild/software/GCCcore/11.2.0/bin/gcc (GNU) version 11.2.0
  C compiler flags      : -O3 -march=native -mno-recip -std=gnu99 -O3 -DNDEBUG
  ELPA2 kernel          : AVX2
  Using MPI
  Using ScaLAPACK
  Using LibXC
  Using i-PI
  Using HDF5
  Using RLSY
  Using PLUMED
  Linking against: /sulis/institutions/warwick/easybuild/software/PLUMED/2.7.3-foss-2021b/lib/libplumed.so
                   /sulis/institutions/warwick/easybuild/software/HDF5/1.12.1-gompi-2021b/lib/libhdf5_fortran.so
                   /sulis/institutions/warwick/easybuild/software/ScaLAPACK/2.1.0-gompi-2021b-fb/lib/libscalapack.so
                   /sulis/institutions/warwick/easybuild/software/FlexiBLAS/3.0.4-GCC-11.2.0/lib/libflexiblas.so

  Using      128 parallel tasks.
  Task        0 on host node100.sulis.hpc reporting.
  Task        1 on host node100.sulis.hpc reporting.
  Task        2 on host node100.sulis.hpc reporting.
  Task        3 on host node100.sulis.hpc reporting.
  Task        4 on host node100.sulis.hpc reporting.
  Task        5 on host node100.sulis.hpc reporting.
  Task        6 on host node100.sulis.hpc reporting.
  Task        7 on host node100.sulis.hpc reporting.
  Task        8 on host node100.sulis.hpc reporting.
  Task        9 on host node100.sulis.hpc reporting.
  Task       10 on host node100.sulis.hpc reporting.
  Task       11 on host node100.sulis.hpc reporting.
  Task       12 on host node100.sulis.hpc reporting.
  Task       13 on host node100.sulis.hpc reporting.
  Task       14 on host node100.sulis.hpc reporting.
  Task       15 on host node100.sulis.hpc reporting.
  Task       16 on host node100.sulis.hpc reporting.
  Task       17 on host node100.sulis.hpc reporting.
  Task       18 on host node100.sulis.hpc reporting.
  Task       19 on host node100.sulis.hpc reporting.
  Task       20 on host node100.sulis.hpc reporting.
  Task       21 on host node100.sulis.hpc reporting.
  Task       22 on host node100.sulis.hpc reporting.
  Task       23 on host node100.sulis.hpc reporting.
  Task       24 on host node100.sulis.hpc reporting.
  Task       25 on host node100.sulis.hpc reporting.
  Task       26 on host node100.sulis.hpc reporting.
  Task       27 on host node100.sulis.hpc reporting.
  Task       28 on host node100.sulis.hpc reporting.
  Task       29 on host node100.sulis.hpc reporting.
  Task       30 on host node100.sulis.hpc reporting.
  Task       31 on host node100.sulis.hpc reporting.
  Task       32 on host node100.sulis.hpc reporting.
  Task       33 on host node100.sulis.hpc reporting.
  Task       34 on host node100.sulis.hpc reporting.
  Task       35 on host node100.sulis.hpc reporting.
  Task       36 on host node100.sulis.hpc reporting.
  Task       37 on host node100.sulis.hpc reporting.
  Task       38 on host node100.sulis.hpc reporting.
  Task       39 on host node100.sulis.hpc reporting.
  Task       40 on host node100.sulis.hpc reporting.
  Task       41 on host node100.sulis.hpc reporting.
  Task       42 on host node100.sulis.hpc reporting.
  Task       43 on host node100.sulis.hpc reporting.
  Task       44 on host node100.sulis.hpc reporting.
  Task       45 on host node100.sulis.hpc reporting.
  Task       46 on host node100.sulis.hpc reporting.
  Task       47 on host node100.sulis.hpc reporting.
  Task       48 on host node100.sulis.hpc reporting.
  Task       49 on host node100.sulis.hpc reporting.
  Task       50 on host node100.sulis.hpc reporting.
  Task       51 on host node100.sulis.hpc reporting.
  Task       52 on host node100.sulis.hpc reporting.
  Task       53 on host node100.sulis.hpc reporting.
  Task       54 on host node100.sulis.hpc reporting.
  Task       55 on host node100.sulis.hpc reporting.
  Task       56 on host node100.sulis.hpc reporting.
  Task       57 on host node100.sulis.hpc reporting.
  Task       58 on host node100.sulis.hpc reporting.
  Task       59 on host node100.sulis.hpc reporting.
  Task       60 on host node100.sulis.hpc reporting.
  Task       61 on host node100.sulis.hpc reporting.
  Task       62 on host node100.sulis.hpc reporting.
  Task       63 on host node100.sulis.hpc reporting.
  Task       64 on host node100.sulis.hpc reporting.
  Task       65 on host node100.sulis.hpc reporting.
  Task       66 on host node100.sulis.hpc reporting.
  Task       67 on host node100.sulis.hpc reporting.
  Task       68 on host node100.sulis.hpc reporting.
  Task       69 on host node100.sulis.hpc reporting.
  Task       70 on host node100.sulis.hpc reporting.
  Task       71 on host node100.sulis.hpc reporting.
  Task       72 on host node100.sulis.hpc reporting.
  Task       73 on host node100.sulis.hpc reporting.
  Task       74 on host node100.sulis.hpc reporting.
  Task       75 on host node100.sulis.hpc reporting.
  Task       76 on host node100.sulis.hpc reporting.
  Task       77 on host node100.sulis.hpc reporting.
  Task       78 on host node100.sulis.hpc reporting.
  Task       79 on host node100.sulis.hpc reporting.
  Task       80 on host node100.sulis.hpc reporting.
  Task       81 on host node100.sulis.hpc reporting.
  Task       82 on host node100.sulis.hpc reporting.
  Task       83 on host node100.sulis.hpc reporting.
  Task       84 on host node100.sulis.hpc reporting.
  Task       85 on host node100.sulis.hpc reporting.
  Task       86 on host node100.sulis.hpc reporting.
  Task       87 on host node100.sulis.hpc reporting.
  Task       88 on host node100.sulis.hpc reporting.
  Task       89 on host node100.sulis.hpc reporting.
  Task       90 on host node100.sulis.hpc reporting.
  Task       91 on host node100.sulis.hpc reporting.
  Task       92 on host node100.sulis.hpc reporting.
  Task       93 on host node100.sulis.hpc reporting.
  Task       94 on host node100.sulis.hpc reporting.
  Task       95 on host node100.sulis.hpc reporting.
  Task       96 on host node100.sulis.hpc reporting.
  Task       97 on host node100.sulis.hpc reporting.
  Task       98 on host node100.sulis.hpc reporting.
  Task       99 on host node100.sulis.hpc reporting.
  Task      100 on host node100.sulis.hpc reporting.
  Task      101 on host node100.sulis.hpc reporting.
  Task      102 on host node100.sulis.hpc reporting.
  Task      103 on host node100.sulis.hpc reporting.
  Task      104 on host node100.sulis.hpc reporting.
  Task      105 on host node100.sulis.hpc reporting.
  Task      106 on host node100.sulis.hpc reporting.
  Task      107 on host node100.sulis.hpc reporting.
  Task      108 on host node100.sulis.hpc reporting.
  Task      109 on host node100.sulis.hpc reporting.
  Task      110 on host node100.sulis.hpc reporting.
  Task      111 on host node100.sulis.hpc reporting.
  Task      112 on host node100.sulis.hpc reporting.
  Task      113 on host node100.sulis.hpc reporting.
  Task      114 on host node100.sulis.hpc reporting.
  Task      115 on host node100.sulis.hpc reporting.
  Task      116 on host node100.sulis.hpc reporting.
  Task      117 on host node100.sulis.hpc reporting.
  Task      118 on host node100.sulis.hpc reporting.
  Task      119 on host node100.sulis.hpc reporting.
  Task      120 on host node100.sulis.hpc reporting.
  Task      121 on host node100.sulis.hpc reporting.
  Task      122 on host node100.sulis.hpc reporting.
  Task      123 on host node100.sulis.hpc reporting.
  Task      124 on host node100.sulis.hpc reporting.
  Task      125 on host node100.sulis.hpc reporting.
  Task      126 on host node100.sulis.hpc reporting.
  Task      127 on host node100.sulis.hpc reporting.

  Performing system and environment tests:
  | Environment variable OMP_NUM_THREADS correctly set to 1.
  | Checking for ScaLAPACK...
  | Testing pdtran()...
  | All pdtran() tests passed.

  Obtaining array dimensions for all initial allocations:
  
  -----------------------------------------------------------------------
  Parsing control.in (first pass over file, find array dimensions only).
  The contents of control.in will be repeated verbatim below
  unless switched off by setting 'verbatim_writeout .false.' .
  in the first line of control.in .
  -----------------------------------------------------------------------
  
  #===============================================================================
  # FHI-aims file: ./control.in
  # Created using the Atomic Simulation Environment (ASE)
  # Wed Mar 23 11:51:40 2022
  #===============================================================================
  xc                                 blyp
  k_grid                             1 1 500
  occupation_type                    gaussian 0.68
  relax_geometry                     bfgs 0.005
  relax_unit_cell                    fixed_angles
  spin                               none
  default_initial_moment             0
  KS_method                          parallel
  RI_method                          LVL_fast
  preconditioner                     kerker 2.0
  sc_accuracy_rho                    1e-06
  sc_accuracy_forces                 0.0001
  #===============================================================================
  
  ################################################################################
  #
  #  FHI-aims code project
  #  Volker Blum, Fritz Haber Institute Berlin, 2009
  #
  #  Suggested "tight" defaults for C atom (to be pasted into control.in file)
  #
  ################################################################################
    species        C
  #     global species definitions
      nucleus             6
      mass                12.0107
  #
      l_hartree           6
  #
      cut_pot             4.0  2.0  1.0
      basis_dep_cutoff    1e-4
  #
      radial_base         34 7.0
      radial_multiplier   2
      angular_grids specified
        division   0.2187   50
        division   0.4416  110
        division   0.6335  194
        division   0.7727  302
        division   0.8772  434
  #      division   0.9334  590
  #      division   0.9924  770
  #      division   1.0230  974
  #      division   1.5020 1202
  #     outer_grid  974
        outer_grid  434
  ################################################################################
  #
  #  Definition of "minimal" basis
  #
  ################################################################################
  #     valence basis states
      valence      2  s   2.
      valence      2  p   2.
  #     ion occupancy
      ion_occ      2  s   1.
      ion_occ      2  p   1.
  ################################################################################
  #
  #  Suggested additional basis functions. For production calculations,
  #  uncomment them one after another (the most important basis functions are
  #  listed first).
  #
  #  Constructed for dimers: 1.0 A, 1.25 A, 1.5 A, 2.0 A, 3.0 A
  #
  ################################################################################
  #  "First tier" - improvements: -1214.57 meV to -155.61 meV
       hydro 2 p 1.7
       hydro 3 d 6
       hydro 2 s 4.9
  #  "Second tier" - improvements: -67.75 meV to -5.23 meV
       hydro 4 f 9.8
       hydro 3 p 5.2
       hydro 3 s 4.3
       hydro 5 g 14.4
       hydro 3 d 6.2
  #  "Third tier" - improvements: -2.43 meV to -0.60 meV
  #     hydro 2 p 5.6
  #     hydro 2 s 1.4
  #     hydro 3 d 4.9
  #     hydro 4 f 11.2
  #  "Fourth tier" - improvements: -0.39 meV to -0.18 meV
  #     hydro 2 p 2.1
  #     hydro 5 g 16.4
  #     hydro 4 d 13.2
  #     hydro 3 s 13.6
  #     hydro 4 f 17.6
  #  Further basis functions - improvements: -0.08 meV and below
  #     hydro 3 s 2
  #     hydro 3 p 6
  #     hydro 4 d 20
  ################################################################################
  #
  # For methods that use the localized form of the "resolution of identity" for
  # the two-electron Coulomb operator (RI_method LVL), particularly Hartree-Fock and
  # hybrid density functional calculations, the highest accuracy can be obtained by
  # uncommenting the line beginning with "for_aux"  below, thus adding an extra g radial
  # function to the construction of the product basis set for the expansion.
  # See Ref. New J. Phys. 17, 093020 (2015) for more information, particularly Figs. 1 and 6.
  #
  ################################################################################
  #
  # for_aux hydro 5 g 6.0
  
  -----------------------------------------------------------------------
  Completed first pass over input file control.in .
  -----------------------------------------------------------------------
  
  
  -----------------------------------------------------------------------
  Parsing geometry.in (first pass over file, find array dimensions only).
  The contents of geometry.in will be repeated verbatim below
  unless switched off by setting 'verbatim_writeout .false.' .
  in the first line of geometry.in .
  -----------------------------------------------------------------------
  
  #=======================================================
  # FHI-aims file: ./geometry.in
  # Created using the Atomic Simulation Environment (ASE)
  # Wed Mar 23 11:51:40 2022
  #=======================================================
  lattice_vector 19.1230500920855988 -0.7864584387815090 -0.0047368448756341
  lattice_vector 0.7854599010840190 18.5034761550599001 -0.0046123434535686
  lattice_vector -0.0050596542637402 0.0002380741830080 2.4467731590289699
  atom_frac 0.6376395291733552 0.5168518588366373 0.5011166496163609 C
  atom_frac 0.5902001938325643 0.4125305544133777 0.0008240646904103 C
  atom_frac 0.4914250660097066 0.3576451220653637 0.5005670108500009 C
  atom_frac 0.3798902593643311 0.3716814283196940 0.0003532340658174 C
  atom_frac 0.2978474742508376 0.4505615816075175 0.5003395666353180 C
  atom_frac 0.2768056421304506 0.5643212784823873 0.0005584984194171 C
  atom_frac 0.3242720028428939 0.6686563133111021 0.5009523192704981 C
  atom_frac 0.4229718032886352 0.7236445780675205 0.0011721230228158 C
  atom_frac 0.5345307011397454 0.7094569543874768 0.5013233587369093 C
  atom_frac 0.6166068188530998 0.6306558312707725 0.0011346422265330 C
  atom_frac 0.6290774756403132 0.4788268710010283 0.0009635451459888 C
  atom_frac 0.5611343771558117 0.3870766847037711 0.5006028256406881 C
  atom_frac 0.4534989770222853 0.3544651437500547 0.0002195909697327 C
  atom_frac 0.3470898964058646 0.3916992483844440 0.5003718010978608 C
  atom_frac 0.2831653045341087 0.4868599275664521 0.0004315501490440 C
  atom_frac 0.2853999553572267 0.6023153207547222 0.5006754818778861 C
  atom_frac 0.3532645327785004 0.6942015890365455 0.0011063082969077 C
  atom_frac 0.4609170091267121 0.7266735981712606 0.5015039036447320 C
  atom_frac 0.5673777521287582 0.6895065227116938 0.0013835370399786 C
  atom_frac 0.6312626942087733 0.5943289363736021 0.5011904099535986 C
  
  -----------------------------------------------------------------------
  Completed first pass over input file geometry.in .
  -----------------------------------------------------------------------
  

  Basic array size parameters:
  | Number of species                 :        1
  | Number of atoms                   :       20
  | Number of lattice vectors         :        3
  | Max. basis fn. angular momentum   :        4
  | Max. atomic/ionic basis occupied n:        2
  | Max. number of basis fn. types    :        2
  | Max. radial fns per species/type  :        8
  | Max. logarithmic grid size        :     1277
  | Max. radial integration grid size :       69
  | Max. angular integration grid size:      434
  | Max. angular grid division number :        8
  | Radial grid for Hartree potential :     1277
  | Number of spin channels           :        1

------------------------------------------------------------
          Reading file control.in.
------------------------------------------------------------
  XC: Using BLYP gradient-corrected functional.
  Found k-point grid:         1         1       500
  Occupation type: Gaussian broadening, width =   0.680000E+00 eV.
  Geometry relaxation: Modified BFGS - TRM (trust radius method) for lattice optimization.
  Convergence accuracy for geometry relaxation: Maximum force <   0.500000E-02 eV/A.
  Spin treatment: No spin polarisation.
  Initial spin moment per atom:   0.0000
  Kohn-Sham electronic structure solved by the ELSI library.
  The 'LVL' version of RI (resolution of identity) technique is used.
  ** This is a localized expansion of all basis function products.
     Its intended use are Hartree-Fock and hybrid functionals.
     For RPA, MP2, GW, etc., LVL is not yet as accurate. In those cases, check carefully.
  Using Kerker preconditioning with damping at q_0 =     0.2000E+01
  Convergence accuracy of self-consistent charge density:  0.1000E-05
  Convergence accuracy of forces:  0.1000E-03

  Reading configuration options for species C                   .
  | Found nuclear charge :   6.0000
  | Found atomic mass :    12.010700000000000      amu
  | Found l_max for Hartree potential  :   6
  | Found cutoff potl. onset [A], width [A], scale factor :    4.00000    2.00000    1.00000
  | Threshold for basis-dependent cutoff potential is   0.100000E-03
  | Found data for basic radial integration grid :    34 points, outermost radius =    7.000 A
  | Found multiplier for basic radial grid :   2
  | Found angular grid specification: user-specified.
  | Specified grid contains     6 separate shells.
  | Check grid settings after all constraints further below.
  | Found free-atom valence shell :  2 s   2.000
  | Found free-atom valence shell :  2 p   2.000
  | No ionic wave fns used. Skipping ion_occ.
  | No ionic wave fns used. Skipping ion_occ.
  | Found hydrogenic basis function :  2 p   1.700
  | Found hydrogenic basis function :  3 d   6.000
  | Found hydrogenic basis function :  2 s   4.900
  | Found hydrogenic basis function :  4 f   9.800
  | Found hydrogenic basis function :  3 p   5.200
  | Found hydrogenic basis function :  3 s   4.300
  | Found hydrogenic basis function :  5 g  14.400
  | Found hydrogenic basis function :  3 d   6.200
  Species C                   : Missing cutoff potential type.
  Defaulting to exp(1/x)/(1-x)^2 type cutoff potential.
  Species C : No 'logarithmic' tag. Using default grid for free atom:
  | Default logarithmic grid data [bohr] : 0.1000E-03 0.1000E+03 0.1012E+01
  Species C : On-site basis accuracy parameter (for Gram-Schmidt orthonormalisation) not specified.
  Using default value basis_acc =  0.1000000E-03.
  Species C                   : Using default innermost maximum threshold i_radial=  2 for radial functions.
  Species C                   : Default cutoff onset for free atom density etc. : 0.40000000E+01 AA.
  Species C                   : Basic radial grid will be enhanced according to radial_multiplier =   2, to contain    69 grid points.

  Finished reading input file 'control.in'.

------------------------------------------------------------


------------------------------------------------------------
          Reading geometry description geometry.in.
------------------------------------------------------------
  | The smallest distance between any two atoms is         1.42074932 AA.
  | The first atom of this pair is atom number                     16 .
  | The second atom of this pair is atom number                     6 .
  | Wigner-Seitz cell of the first atom image           0     0     1 .
  | (The Wigner-Seitz cell of the second atom is 0 0 0  by definition.)

  Symmetry information by spglib:
  | Precision set to  0.1E-04
  | Number of Operations  : 1
  | Space group           : 1
  | International         : P1
  | Schoenflies           : C1^1
  Input structure read successfully.
  The structure contains       20 atoms,  and a total of        120.000 electrons.

  Input geometry:
  | Unit cell:
  |       19.12305009       -0.78645844       -0.00473684
  |        0.78545990       18.50347616       -0.00461234
  |       -0.00505965        0.00023807        2.44677316
  | Atomic structure:
  |       Atom                x [A]            y [A]            z [A]
  |    1: Species C            12.59704359        9.06219836        1.22071447
  |    2: Species C            11.61044991        7.16908155       -0.00268212
  |    3: Species C             9.67592936        6.23131177        1.22079654
  |    4: Species C             7.55659953        6.57863063       -0.00264952
  |    5: Species C             6.04711868        8.10282994        1.22072842
  |    6: Species C             5.73661707       10.22420932       -0.00254751
  |    7: Species C             6.72373783       12.11755896        1.22109659
  |    8: Species C             8.65689885       13.05729073       -0.00247333
  |    9: Species C            10.77657084       12.70715301        1.22082029
  |   10: Species C            12.28675221       11.18438977       -0.00305336
  |   11: Species C            12.40597451        8.36521853       -0.00283078
  |   12: Species C            11.03210114        6.72107452        1.22041822
  |   13: Species C             8.95070070        6.20217929       -0.00324578
  |   14: Species C             6.94254982        6.97494505        1.22084553
  |   15: Species C             5.79739107        8.78590342       -0.00253097
  |   16: Species C             5.92827893       10.92059117        1.22090935
  |   17: Species C             7.30075727       12.56731494       -0.00216837
  |   18: Species C             9.38237459       13.08361492        1.22153133
  |   19: Species C            11.39156590       12.31204881       -0.00248262
  |   20: Species C            12.53595382       10.50080875        1.22056780

  Lattice parameters for 3D lattice (in Angstroms) :    19.139216   18.520140    2.446778
  Angle(s) between unit vectors (in degrees)       :    90.013724   90.132791   89.924320


  Quantities derived from the lattice vectors:
  | Reciprocal lattice vector 1:  0.327994 -0.013923  0.000680
  | Reciprocal lattice vector 2:  0.013941  0.338976 -0.000004
  | Reciprocal lattice vector 3:  0.000661  0.000612  2.567949
  | Unit cell volume                               :   0.867284E+03  A^3

  Fractional coordinates:
                         L1                L2                L3
       atom_frac         0.63763953        0.51685186        0.50111665  C
       atom_frac         0.59020019        0.41253055        0.00082406  C
       atom_frac         0.49142507        0.35764512        0.50056701  C
       atom_frac         0.37989026        0.37168143        0.00035323  C
       atom_frac         0.29784747        0.45056158        0.50033957  C
       atom_frac         0.27680564        0.56432128        0.00055850  C
       atom_frac         0.32427200        0.66865631        0.50095232  C
       atom_frac         0.42297180        0.72364458        0.00117212  C
       atom_frac         0.53453070        0.70945695        0.50132336  C
       atom_frac         0.61660682        0.63065583        0.00113464  C
       atom_frac         0.62907748        0.47882687        0.00096355  C
       atom_frac         0.56113438        0.38707668        0.50060283  C
       atom_frac         0.45349898        0.35446514        0.00021959  C
       atom_frac         0.34708990        0.39169925        0.50037180  C
       atom_frac         0.28316530        0.48685993        0.00043155  C
       atom_frac         0.28539996        0.60231532        0.50067548  C
       atom_frac         0.35326453        0.69420159        0.00110631  C
       atom_frac         0.46091701        0.72667360        0.50150390  C
       atom_frac         0.56737775        0.68950652        0.00138354  C
       atom_frac         0.63126269        0.59432894        0.50119041  C


  Finished reading input file 'control.in'.


------------------------------------------------------------
          Reading geometry description geometry.in.
------------------------------------------------------------

  Consistency checks for stacksize environment parameter are next.

  | Maximum stacksize for task 0: unlimited
  | Maximum stacksize for task 1: unlimited
  | Maximum stacksize for task 2: unlimited
  | Maximum stacksize for task 3: unlimited
  | Maximum stacksize for task 4: unlimited
  | Maximum stacksize for task 5: unlimited
  | Maximum stacksize for task 6: unlimited
  | Maximum stacksize for task 7: unlimited
  | Maximum stacksize for task 8: unlimited
  | Maximum stacksize for task 9: unlimited
  | Maximum stacksize for task 10: unlimited
  | Maximum stacksize for task 11: unlimited
  | Maximum stacksize for task 12: unlimited
  | Maximum stacksize for task 13: unlimited
  | Maximum stacksize for task 14: unlimited
  | Maximum stacksize for task 15: unlimited
  | Maximum stacksize for task 16: unlimited
  | Maximum stacksize for task 17: unlimited
  | Maximum stacksize for task 18: unlimited
  | Maximum stacksize for task 19: unlimited
  | Maximum stacksize for task 20: unlimited
  | Maximum stacksize for task 21: unlimited
  | Maximum stacksize for task 22: unlimited
  | Maximum stacksize for task 23: unlimited
  | Maximum stacksize for task 24: unlimited
  | Maximum stacksize for task 25: unlimited
  | Maximum stacksize for task 26: unlimited
  | Maximum stacksize for task 27: unlimited
  | Maximum stacksize for task 28: unlimited
  | Maximum stacksize for task 29: unlimited
  | Maximum stacksize for task 30: unlimited
  | Maximum stacksize for task 31: unlimited
  | Maximum stacksize for task 32: unlimited
  | Maximum stacksize for task 33: unlimited
  | Maximum stacksize for task 34: unlimited
  | Maximum stacksize for task 35: unlimited
  | Maximum stacksize for task 36: unlimited
  | Maximum stacksize for task 37: unlimited
  | Maximum stacksize for task 38: unlimited
  | Maximum stacksize for task 39: unlimited
  | Maximum stacksize for task 40: unlimited
  | Maximum stacksize for task 41: unlimited
  | Maximum stacksize for task 42: unlimited
  | Maximum stacksize for task 43: unlimited
  | Maximum stacksize for task 44: unlimited
  | Maximum stacksize for task 45: unlimited
  | Maximum stacksize for task 46: unlimited
  | Maximum stacksize for task 47: unlimited
  | Maximum stacksize for task 48: unlimited
  | Maximum stacksize for task 49: unlimited
  | Maximum stacksize for task 50: unlimited
  | Maximum stacksize for task 51: unlimited
  | Maximum stacksize for task 52: unlimited
  | Maximum stacksize for task 53: unlimited
  | Maximum stacksize for task 54: unlimited
  | Maximum stacksize for task 55: unlimited
  | Maximum stacksize for task 56: unlimited
  | Maximum stacksize for task 57: unlimited
  | Maximum stacksize for task 58: unlimited
  | Maximum stacksize for task 59: unlimited
  | Maximum stacksize for task 60: unlimited
  | Maximum stacksize for task 61: unlimited
  | Maximum stacksize for task 62: unlimited
  | Maximum stacksize for task 63: unlimited
  | Maximum stacksize for task 64: unlimited
  | Maximum stacksize for task 65: unlimited
  | Maximum stacksize for task 66: unlimited
  | Maximum stacksize for task 67: unlimited
  | Maximum stacksize for task 68: unlimited
  | Maximum stacksize for task 69: unlimited
  | Maximum stacksize for task 70: unlimited
  | Maximum stacksize for task 71: unlimited
  | Maximum stacksize for task 72: unlimited
  | Maximum stacksize for task 73: unlimited
  | Maximum stacksize for task 74: unlimited
  | Maximum stacksize for task 75: unlimited
  | Maximum stacksize for task 76: unlimited
  | Maximum stacksize for task 77: unlimited
  | Maximum stacksize for task 78: unlimited
  | Maximum stacksize for task 79: unlimited
  | Maximum stacksize for task 80: unlimited
  | Maximum stacksize for task 81: unlimited
  | Maximum stacksize for task 82: unlimited
  | Maximum stacksize for task 83: unlimited
  | Maximum stacksize for task 84: unlimited
  | Maximum stacksize for task 85: unlimited
  | Maximum stacksize for task 86: unlimited
  | Maximum stacksize for task 87: unlimited
  | Maximum stacksize for task 88: unlimited
  | Maximum stacksize for task 89: unlimited
  | Maximum stacksize for task 90: unlimited
  | Maximum stacksize for task 91: unlimited
  | Maximum stacksize for task 92: unlimited
  | Maximum stacksize for task 93: unlimited
  | Maximum stacksize for task 94: unlimited
  | Maximum stacksize for task 95: unlimited
  | Maximum stacksize for task 96: unlimited
  | Maximum stacksize for task 97: unlimited
  | Maximum stacksize for task 98: unlimited
  | Maximum stacksize for task 99: unlimited
  | Maximum stacksize for task 100: unlimited
  | Maximum stacksize for task 101: unlimited
  | Maximum stacksize for task 102: unlimited
  | Maximum stacksize for task 103: unlimited
  | Maximum stacksize for task 104: unlimited
  | Maximum stacksize for task 105: unlimited
  | Maximum stacksize for task 106: unlimited
  | Maximum stacksize for task 107: unlimited
  | Maximum stacksize for task 108: unlimited
  | Maximum stacksize for task 109: unlimited
  | Maximum stacksize for task 110: unlimited
  | Maximum stacksize for task 111: unlimited
  | Maximum stacksize for task 112: unlimited
  | Maximum stacksize for task 113: unlimited
  | Maximum stacksize for task 114: unlimited
  | Maximum stacksize for task 115: unlimited
  | Maximum stacksize for task 116: unlimited
  | Maximum stacksize for task 117: unlimited
  | Maximum stacksize for task 118: unlimited
  | Maximum stacksize for task 119: unlimited
  | Maximum stacksize for task 120: unlimited
  | Maximum stacksize for task 121: unlimited
  | Maximum stacksize for task 122: unlimited
  | Maximum stacksize for task 123: unlimited
  | Maximum stacksize for task 124: unlimited
  | Maximum stacksize for task 125: unlimited
  | Maximum stacksize for task 126: unlimited
  | Maximum stacksize for task 127: unlimited
  | Current stacksize for task 0: unlimited
  | Current stacksize for task 1: unlimited
  | Current stacksize for task 2: unlimited
  | Current stacksize for task 3: unlimited
  | Current stacksize for task 4: unlimited
  | Current stacksize for task 5: unlimited
  | Current stacksize for task 6: unlimited
  | Current stacksize for task 7: unlimited
  | Current stacksize for task 8: unlimited
  | Current stacksize for task 9: unlimited
  | Current stacksize for task 10: unlimited
  | Current stacksize for task 11: unlimited
  | Current stacksize for task 12: unlimited
  | Current stacksize for task 13: unlimited
  | Current stacksize for task 14: unlimited
  | Current stacksize for task 15: unlimited
  | Current stacksize for task 16: unlimited
  | Current stacksize for task 17: unlimited
  | Current stacksize for task 18: unlimited
  | Current stacksize for task 19: unlimited
  | Current stacksize for task 20: unlimited
  | Current stacksize for task 21: unlimited
  | Current stacksize for task 22: unlimited
  | Current stacksize for task 23: unlimited
  | Current stacksize for task 24: unlimited
  | Current stacksize for task 25: unlimited
  | Current stacksize for task 26: unlimited
  | Current stacksize for task 27: unlimited
  | Current stacksize for task 28: unlimited
  | Current stacksize for task 29: unlimited
  | Current stacksize for task 30: unlimited
  | Current stacksize for task 31: unlimited
  | Current stacksize for task 32: unlimited
  | Current stacksize for task 33: unlimited
  | Current stacksize for task 34: unlimited
  | Current stacksize for task 35: unlimited
  | Current stacksize for task 36: unlimited
  | Current stacksize for task 37: unlimited
  | Current stacksize for task 38: unlimited
  | Current stacksize for task 39: unlimited
  | Current stacksize for task 40: unlimited
  | Current stacksize for task 41: unlimited
  | Current stacksize for task 42: unlimited
  | Current stacksize for task 43: unlimited
  | Current stacksize for task 44: unlimited
  | Current stacksize for task 45: unlimited
  | Current stacksize for task 46: unlimited
  | Current stacksize for task 47: unlimited
  | Current stacksize for task 48: unlimited
  | Current stacksize for task 49: unlimited
  | Current stacksize for task 50: unlimited
  | Current stacksize for task 51: unlimited
  | Current stacksize for task 52: unlimited
  | Current stacksize for task 53: unlimited
  | Current stacksize for task 54: unlimited
  | Current stacksize for task 55: unlimited
  | Current stacksize for task 56: unlimited
  | Current stacksize for task 57: unlimited
  | Current stacksize for task 58: unlimited
  | Current stacksize for task 59: unlimited
  | Current stacksize for task 60: unlimited
  | Current stacksize for task 61: unlimited
  | Current stacksize for task 62: unlimited
  | Current stacksize for task 63: unlimited
  | Current stacksize for task 64: unlimited
  | Current stacksize for task 65: unlimited
  | Current stacksize for task 66: unlimited
  | Current stacksize for task 67: unlimited
  | Current stacksize for task 68: unlimited
  | Current stacksize for task 69: unlimited
  | Current stacksize for task 70: unlimited
  | Current stacksize for task 71: unlimited
  | Current stacksize for task 72: unlimited
  | Current stacksize for task 73: unlimited
  | Current stacksize for task 74: unlimited
  | Current stacksize for task 75: unlimited
  | Current stacksize for task 76: unlimited
  | Current stacksize for task 77: unlimited
  | Current stacksize for task 78: unlimited
  | Current stacksize for task 79: unlimited
  | Current stacksize for task 80: unlimited
  | Current stacksize for task 81: unlimited
  | Current stacksize for task 82: unlimited
  | Current stacksize for task 83: unlimited
  | Current stacksize for task 84: unlimited
  | Current stacksize for task 85: unlimited
  | Current stacksize for task 86: unlimited
  | Current stacksize for task 87: unlimited
  | Current stacksize for task 88: unlimited
  | Current stacksize for task 89: unlimited
  | Current stacksize for task 90: unlimited
  | Current stacksize for task 91: unlimited
  | Current stacksize for task 92: unlimited
  | Current stacksize for task 93: unlimited
  | Current stacksize for task 94: unlimited
  | Current stacksize for task 95: unlimited
  | Current stacksize for task 96: unlimited
  | Current stacksize for task 97: unlimited
  | Current stacksize for task 98: unlimited
  | Current stacksize for task 99: unlimited
  | Current stacksize for task 100: unlimited
  | Current stacksize for task 101: unlimited
  | Current stacksize for task 102: unlimited
  | Current stacksize for task 103: unlimited
  | Current stacksize for task 104: unlimited
  | Current stacksize for task 105: unlimited
  | Current stacksize for task 106: unlimited
  | Current stacksize for task 107: unlimited
  | Current stacksize for task 108: unlimited
  | Current stacksize for task 109: unlimited
  | Current stacksize for task 110: unlimited
  | Current stacksize for task 111: unlimited
  | Current stacksize for task 112: unlimited
  | Current stacksize for task 113: unlimited
  | Current stacksize for task 114: unlimited
  | Current stacksize for task 115: unlimited
  | Current stacksize for task 116: unlimited
  | Current stacksize for task 117: unlimited
  | Current stacksize for task 118: unlimited
  | Current stacksize for task 119: unlimited
  | Current stacksize for task 120: unlimited
  | Current stacksize for task 121: unlimited
  | Current stacksize for task 122: unlimited
  | Current stacksize for task 123: unlimited
  | Current stacksize for task 124: unlimited
  | Current stacksize for task 125: unlimited
  | Current stacksize for task 126: unlimited
  | Current stacksize for task 127: unlimited

  Consistency checks for the contents of control.in are next.

  MPI_IN_PLACE appears to work with this MPI implementation.
  | Keeping use_mpi_in_place .true. (see manual).
  Target number of points in a grid batch is not set. Defaulting to  100
  Method for grid partitioning is not set. Defaulting to parallel hash+maxmin partitioning.
  Batch size limit is not set. Defaulting to    200
  By default, will store active basis functions for each batch.
  If in need of memory, prune_basis_once .false. can be used to disable this option.
  communication_type for Hartree potential was not specified.
  Defaulting to calc_hartree .
  Defaulting to Pulay charge density mixer.
  Pulay mixer: Number of relevant iterations not set.
  Defaulting to    8 iterations.
  Pulay mixer: Number of initial linear mixing iterations not set.
  Defaulting to    0 iterations.
  Work space size for distributed Hartree potential not set.
  Defaulting to   0.200000E+03 MB.
  Mixing parameter for charge density mixing has not been set.
  Using default: charge_mix_param =     0.0500.
  The mixing parameter will be adjusted in iteration number     2 of the first full s.c.f. cycle only.
  Algorithm-dependent basis array size parameters:
  | n_max_pulay                         :        8
  Maximum number of self-consistency iterations not provided.
  Presetting  1000 iterations.
  Presetting      1001 iterations before the initial mixing cycle
  is restarted anyway using the sc_init_iter criterion / keyword.
  Presetting a factor      1.000 between actual scf density residual
  and density convergence criterion sc_accuracy_rho below which sc_init_iter
  takes no effect.
  No maximum number of relaxation steps, defaulting to     1000
  Default initial Hessian is Lindh matrix (thres = 15.00) plus  0.200000E+01 eV/A^2 times unity.
  No maximum energy tolerance for TRM/BFGS moves, defaulting to   0.100000E-02
  Maximum energy tolerance by which TRM/BFGS trajectory may increase over multiple steps:   0.300000E-02
  No harmonic length scale. Defaulting to   0.250000E-01 A.
  No trust radius initializer. Defaulting to   0.200000E+00 A.
  Unit cell relaxation: Restricted relaxation with fixed angles between lattice vectors.
  Unit cell relaxation: Analytical stress will be used.
  Analytical stress will be computed.
  Analytical stress calculation: Only the upper triangle is calculated.
                                 Final output is symmetrized.
  Analytical stress calculation: scf convergence accuracy of stress not set.
                                 Analytical stress self-consistency will not be checked explicitly.
                                 Be sure to set other criteria like sc_accuracy_rho tight enough.
  Forces evaluation will include force correction term due to incomplete self-consistency (default).
  Handling of forces: Unphysical translation and rotation will be removed from forces.
  No accuracy limit for integral partition fn. given. Defaulting to  0.1000E-14.
  No threshold value for u(r) in integrations given. Defaulting to  0.1000E-05.
  No accuracy for occupation numbers given. Defaulting to  0.1000E-12.
  No threshold value for occupation numbers given. Defaulting to  0.0000E+00.
  No accuracy for fermi level given. Defaulting to  0.1000E-19.
  Maximum # of iterations to find E_F not set. Defaulting to  200.
 * You have   500 k-points in your system, but only   128 MPI-tasks available.
 * In this case using ScaLAPACK is not necessary / supported.
 * Switching to LAPACK (via ELSI) instead.
  Will not use alltoall communication since running on < 1024 CPUs.
  Threshold for basis singularities not set.
  Default threshold for basis singularities:  0.1000E-04
  partition_type (choice of integration weights) for integrals was not specified.
  | Using a version of the partition function of Stratmann and coworkers ('stratmann_sparse').
  | At each grid point, the set of atoms used to build the partition table is smoothly restricted to
  | only those atoms whose free-atom density would be non-zero at that grid point.
  Partitioning for Hartree potential was not defined. Using partition_type for integrals.
  | Adjusted default value of keyword multip_moments_threshold to:       0.10000000E-11
  | This value may affect high angular momentum components of the Hartree potential in periodic systems.
  Angular momentum expansion for Kerker preconditioner not set explicitly.
  | Using default value of   0
  No explicit requirement for turning off preconditioner.
  | By default, it will be turned off when the charge convergence reaches
  | sc_accuracy_rho  =   0.100000E-05
  No special mixing parameter while Kerker preconditioner is on.
  Using default: charge_mix_param =     0.0500.
  No q(lm)/r^(l+1) cutoff set for long-range Hartree potential.
  | Using default value of  0.100000E-09 .
  | Verify using the multipole_threshold keyword.
  Defaulting to new monopole extrapolation.
  Density update method: automatic selection selected.
  Using density matrix based charge density update.
  Using density matrix based charge density update.
  Using packed matrix style: index .
  Geometry relaxation: A file "geometry.in.next_step" is written out by default after each step.
  | This file contains the geometry of the current relaxation step as well as
  | the current Hessian matrix needed to restart the relaxation algorithm.
  | If you do not want part or all of this information, use the keywords
  | "write_restart_geometry" or "hessian_to_restart_geometry" to switch the output off.
  Defaulting to use time-reversal symmetry for k-point grid.
  Charge integration errors on the 3D integration grid will be compensated
  by explicit normalization and distribution of residual charges.
  Use the "compensate_multipole_errors" flag to change this behaviour.
  Set 'collect_eigenvectors' to be '.true.' for all serial calculations. This is mandatory.
  Set 'collect_eigenvectors' to be '.true.' for KS_method lapack_fast and serial.

  Consistency checks for the contents of geometry.in are next.


  Range separation radius for Ewald summation (hartree_convergence_parameter):      5.00000000 bohr.
 * Warning! You did not set the 'relativistic' flag in input file 'control.in'.
 * Since you are not attempting to treat any elements beyond Ca(Z=20), FHI-aims
 * will default to 'relativistic none'.
 * You must ensure that this is really what you want!!
 * For example, DO NOT compute total-energy differences between results from
 * different settings of the 'relativistic' flag.
  Number of empty states per atom not set in control.in - providing a guess from actual geometry.
  | Total number of empty states used during s.c.f. cycle:       60
  If you use a very high smearing, use empty_states (per atom!) in control.in to increase this value.

  Structure-dependent array size parameters: 
  | Maximum number of distinct radial functions  :       11
  | Maximum number of basis functions            :      780
  | Number of Kohn-Sham states (occupied + empty):      120
------------------------------------------------------------

------------------------------------------------------------
          Preparing all fixed parts of the calculation.
------------------------------------------------------------
  Determining machine precision:
     2.2250738585072014E-308
  Setting up grids for atomic and cluster calculations.

  Creating wave function, potential, and density for free atoms.

  Species: C

  List of occupied orbitals and eigenvalues:
    n    l              occ      energy [Ha]    energy [eV]
    1    0           2.0000       -10.061602      -273.7901
    2    0           2.0000        -0.499120       -13.5817
    2    1           2.0000        -0.191941        -5.2230


  Adding cutoff potential to free-atom effective potential.
  Creating fixed part of basis set: Ionic, confined, hydrogenic.

  C                    hydrogenic:

  List of hydrogenic basis orbitals: 
    n    l      effective z      eigenvalue [eV]  inner max. [A]     outer max. [A]     outer radius [A]   
    2    1         1.700000        -9.8152           1.245706           1.245706           5.401630
    3    2         6.000000       -54.4226           0.792453           0.792453           4.178599
    2    0         4.900000       -81.6681           0.082559           0.562749           3.353238
    4    3         9.800000       -81.6681           0.863254           0.863254           4.028125
    3    1         5.200000       -40.8774           0.305389           1.215618           4.898362
    3    0         4.300000       -27.9508           0.091041           1.610311           5.401630
    5    4        14.400000      -112.8510           0.917666           0.917666           3.883070
    3    2         6.200000       -58.1113           0.763917           0.763917           4.077671

  Creating atomic-like basis functions for current effective potential.

  Species C                   :

  List of atomic basis orbitals and eigenvalues:
    n    l      energy [Ha]    energy [eV]    outer radius [A]
    1    0       -10.061602      -273.7901       1.934409
    2    0        -0.499120       -13.5817       5.271162
    2    1        -0.191941        -5.2230       5.401630

  Assembling full basis from fixed parts.
  | Species C :   atomic orbital   1 s accepted.
  | Species C :    hydro orbital   2 s accepted.
  | Species C :   atomic orbital   2 s accepted.
  | Species C :    hydro orbital   3 s accepted.
  | Species C :    hydro orbital   3 p accepted.
  | Species C :   atomic orbital   2 p accepted.
  | Species C :    hydro orbital   2 p accepted.
  | Species C :    hydro orbital   3 d accepted.
  | Species C :    hydro orbital   3 d accepted.
  | Species C :    hydro orbital   4 f accepted.
  | Species C :    hydro orbital   5 g accepted.

  Basis size parameters after reduction:
  | Total number of radial functions:       11
  | Total number of basis functions :      780

  Per-task memory consumption for arrays in subroutine allocate_ext:
  |           2.714316MB.
  Testing on-site integration grid accuracy.
  |  Species  Function  <phi|h_atom|phi> (log., in eV)  <phi|h_atom|phi> (rad., in eV)
           1        1               -273.7901162246               -273.7901146924
           1        2                -10.6593454322                -10.6593675792
           1        3                 17.0527610142                 17.0527815066
           1        4                 55.0622378564                 55.0625162637
           1        5                 15.0505160693                 15.0505129260
           1        6                  3.7659134156                  3.7659773891
           1        7                 11.8078976666                 11.8103928498
           1        8                 29.6365046523                 29.6365049766
           1        9                 54.7437900785                 54.7437027864
           1       10                 59.5933351698                 59.5933351037
           1       11                 93.7035349135                 93.7035349877

  Preparing densities etc. for the partition functions (integrals / Hartree potential).

  Preparations completed.
  max(cpu_time)          :      0.112 s.
  Wall clock time (cpu1) :      0.141 s.
------------------------------------------------------------

------------------------------------------------------------
          Begin self-consistency loop: Initialization.

          Date     :  20220323, Time     :  115333.018
------------------------------------------------------------

  Initializing index lists of integration centers etc. from given atomic structure:
  Mapping all atomic coordinates to central unit cell.

  Initializing the k-points
  Using symmetry for reducing the k-points
  | k-points reduced from:      500 to      251
  | Number of k-points                             :       251
  The eigenvectors in the calculations are COMPLEX.
  | K-points in task   0:         1
  | K-points in task   1:         2
  | K-points in task   2:         2
  | K-points in task   3:         2
  | K-points in task   4:         2
  | K-points in task   5:         2
  | K-points in task   6:         2
  | K-points in task   7:         2
  | K-points in task   8:         2
  | K-points in task   9:         2
  | K-points in task  10:         2
  | K-points in task  11:         2
  | K-points in task  12:         2
  | K-points in task  13:         2
  | K-points in task  14:         2
  | K-points in task  15:         2
  | K-points in task  16:         2
  | K-points in task  17:         2
  | K-points in task  18:         2
  | K-points in task  19:         2
  | K-points in task  20:         2
  | K-points in task  21:         2
  | K-points in task  22:         2
  | K-points in task  23:         2
  | K-points in task  24:         2
  | K-points in task  25:         2
  | K-points in task  26:         2
  | K-points in task  27:         2
  | K-points in task  28:         2
  | K-points in task  29:         2
  | K-points in task  30:         2
  | K-points in task  31:         2
  | K-points in task  32:         2
  | K-points in task  33:         2
  | K-points in task  34:         2
  | K-points in task  35:         2
  | K-points in task  36:         2
  | K-points in task  37:         2
  | K-points in task  38:         2
  | K-points in task  39:         2
  | K-points in task  40:         2
  | K-points in task  41:         2
  | K-points in task  42:         2
  | K-points in task  43:         2
  | K-points in task  44:         2
  | K-points in task  45:         2
  | K-points in task  46:         2
  | K-points in task  47:         2
  | K-points in task  48:         2
  | K-points in task  49:         2
  | K-points in task  50:         2
  | K-points in task  51:         2
  | K-points in task  52:         2
  | K-points in task  53:         2
  | K-points in task  54:         2
  | K-points in task  55:         2
  | K-points in task  56:         2
  | K-points in task  57:         2
  | K-points in task  58:         2
  | K-points in task  59:         2
  | K-points in task  60:         2
  | K-points in task  61:         2
  | K-points in task  62:         2
  | K-points in task  63:         2
  | K-points in task  64:         2
  | K-points in task  65:         2
  | K-points in task  66:         2
  | K-points in task  67:         2
  | K-points in task  68:         2
  | K-points in task  69:         2
  | K-points in task  70:         2
  | K-points in task  71:         2
  | K-points in task  72:         2
  | K-points in task  73:         2
  | K-points in task  74:         2
  | K-points in task  75:         2
  | K-points in task  76:         2
  | K-points in task  77:         2
  | K-points in task  78:         2
  | K-points in task  79:         2
  | K-points in task  80:         2
  | K-points in task  81:         2
  | K-points in task  82:         2
  | K-points in task  83:         2
  | K-points in task  84:         2
  | K-points in task  85:         2
  | K-points in task  86:         2
  | K-points in task  87:         2
  | K-points in task  88:         2
  | K-points in task  89:         2
  | K-points in task  90:         2
  | K-points in task  91:         2
  | K-points in task  92:         2
  | K-points in task  93:         2
  | K-points in task  94:         2
  | K-points in task  95:         2
  | K-points in task  96:         2
  | K-points in task  97:         2
  | K-points in task  98:         2
  | K-points in task  99:         2
  | K-points in task 100:         2
  | K-points in task 101:         2
  | K-points in task 102:         2
  | K-points in task 103:         2
  | K-points in task 104:         2
  | K-points in task 105:         2
  | K-points in task 106:         2
  | K-points in task 107:         2
  | K-points in task 108:         2
  | K-points in task 109:         2
  | K-points in task 110:         2
  | K-points in task 111:         2
  | K-points in task 112:         2
  | K-points in task 113:         2
  | K-points in task 114:         2
  | K-points in task 115:         2
  | K-points in task 116:         2
  | K-points in task 117:         2
  | K-points in task 118:         2
  | K-points in task 119:         2
  | K-points in task 120:         2
  | K-points in task 121:         2
  | K-points in task 122:         2
  | K-points in task 123:         2
  | K-points in task 124:         1
  | K-points in task 125:         1
  | K-points in task 126:         1
  | K-points in task 127:         1
  | Number of basis functions in the Hamiltonian integrals :     12235
  | Number of basis functions in a single unit cell        :       780
  | Number of centers in hartree potential         :      1417
  | Number of centers in hartree multipole         :       830
  | Number of centers in electron density summation:       734
  | Number of centers in basis integrals           :       750
  | Number of centers in integrals                 :       422
  | Number of centers in hamiltonian               :       734
  | Consuming        360 KiB for k_phase.
  | Number of super-cells (origin) [n_cells]                     :         425
  | Number of super-cells (after PM_index) [n_cells]             :          92
  | Number of super-cells in hamiltonian [n_cells_in_hamiltonian]:          92
  | Size of matrix packed + index [n_hamiltonian_matrix_size] :     1848092

  Initializing relaxation algorithms.
  Finished initialization of distributed Hessian storage.
  | Global dimension:        69
  | BLACS block size:         1
  | Number of workers:       69

  | Estimated reciprocal-space cutoff momentum G_max:         1.90186217 bohr^-1 .
  | Reciprocal lattice points for long-range Hartree potential:     722
  Partitioning the integration grid into batches with parallel hashing+maxmin method.
  | Number of batches:     3046
  | Maximal batch size:     200
  | Minimal batch size:       3
  | Average batch size:     118.700
  | Standard deviation of batch sizes:      28.383

  Integration load balanced across   128 MPI tasks.
  Work distribution over tasks is as follows:
  Task     0 has       2830 integration points.
  Task     1 has       2790 integration points.
  Task     2 has       2889 integration points.
  Task     3 has       2783 integration points.
  Task     4 has       2834 integration points.
  Task     5 has       2782 integration points.
  Task     6 has       2799 integration points.
  Task     7 has       2898 integration points.
  Task     8 has       2826 integration points.
  Task     9 has       2888 integration points.
  Task    10 has       2786 integration points.
  Task    11 has       2831 integration points.
  Task    12 has       2830 integration points.
  Task    13 has       2852 integration points.
  Task    14 has       2784 integration points.
  Task    15 has       2779 integration points.
  Task    16 has       2838 integration points.
  Task    17 has       2895 integration points.
  Task    18 has       2799 integration points.
  Task    19 has       2900 integration points.
  Task    20 has       2782 integration points.
  Task    21 has       2787 integration points.
  Task    22 has       2802 integration points.
  Task    23 has       2893 integration points.
  Task    24 has       2898 integration points.
  Task    25 has       2827 integration points.
  Task    26 has       2807 integration points.
  Task    27 has       2838 integration points.
  Task    28 has       2779 integration points.
  Task    29 has       2779 integration points.
  Task    30 has       2891 integration points.
  Task    31 has       2847 integration points.
  Task    32 has       2799 integration points.
  Task    33 has       2782 integration points.
  Task    34 has       2833 integration points.
  Task    35 has       2800 integration points.
  Task    36 has       2781 integration points.
  Task    37 has       2779 integration points.
  Task    38 has       2832 integration points.
  Task    39 has       2891 integration points.
  Task    40 has       2785 integration points.
  Task    41 has       2778 integration points.
  Task    42 has       2833 integration points.
  Task    43 has       2835 integration points.
  Task    44 has       2837 integration points.
  Task    45 has       2798 integration points.
  Task    46 has       2801 integration points.
  Task    47 has       2827 integration points.
  Task    48 has       2838 integration points.
  Task    49 has       2785 integration points.
  Task    50 has       2845 integration points.
  Task    51 has       2833 integration points.
  Task    52 has       2823 integration points.
  Task    53 has       2834 integration points.
  Task    54 has       2823 integration points.
  Task    55 has       2888 integration points.
  Task    56 has       2787 integration points.
  Task    57 has       2802 integration points.
  Task    58 has       2792 integration points.
  Task    59 has       2839 integration points.
  Task    60 has       2892 integration points.
  Task    61 has       2833 integration points.
  Task    62 has       2893 integration points.
  Task    63 has       2899 integration points.
  Task    64 has       2896 integration points.
  Task    65 has       2788 integration points.
  Task    66 has       2784 integration points.
  Task    67 has       2835 integration points.
  Task    68 has       2830 integration points.
  Task    69 has       2893 integration points.
  Task    70 has       2832 integration points.
  Task    71 has       2791 integration points.
  Task    72 has       2780 integration points.
  Task    73 has       2824 integration points.
  Task    74 has       2787 integration points.
  Task    75 has       2784 integration points.
  Task    76 has       2792 integration points.
  Task    77 has       2785 integration points.
  Task    78 has       2777 integration points.
  Task    79 has       2850 integration points.
  Task    80 has       2895 integration points.
  Task    81 has       2786 integration points.
  Task    82 has       2829 integration points.
  Task    83 has       2811 integration points.
  Task    84 has       2812 integration points.
  Task    85 has       2828 integration points.
  Task    86 has       2831 integration points.
  Task    87 has       2826 integration points.
  Task    88 has       2787 integration points.
  Task    89 has       2826 integration points.
  Task    90 has       2790 integration points.
  Task    91 has       2790 integration points.
  Task    92 has       2843 integration points.
  Task    93 has       2840 integration points.
  Task    94 has       2830 integration points.
  Task    95 has       2842 integration points.
  Task    96 has       2795 integration points.
  Task    97 has       2902 integration points.
  Task    98 has       2835 integration points.
  Task    99 has       2833 integration points.
  Task   100 has       2781 integration points.
  Task   101 has       2780 integration points.
  Task   102 has       2890 integration points.
  Task   103 has       2848 integration points.
  Task   104 has       2801 integration points.
  Task   105 has       2785 integration points.
  Task   106 has       2788 integration points.
  Task   107 has       2787 integration points.
  Task   108 has       2790 integration points.
  Task   109 has       2897 integration points.
  Task   110 has       2834 integration points.
  Task   111 has       2877 integration points.
  Task   112 has       2829 integration points.
  Task   113 has       2838 integration points.
  Task   114 has       2797 integration points.
  Task   115 has       2781 integration points.
  Task   116 has       2780 integration points.
  Task   117 has       2894 integration points.
  Task   118 has       2783 integration points.
  Task   119 has       2783 integration points.
  Task   120 has       2900 integration points.
  Task   121 has       2883 integration points.
  Task   122 has       2806 integration points.
  Task   123 has       2893 integration points.
  Task   124 has       2779 integration points.
  Task   125 has       2806 integration points.
  Task   126 has       2819 integration points.
  Task   127 has       2832 integration points.
  Initializing partition tables, free-atom densities, potentials, etc. across the integration grid (initialize_grid_storage).
  | initialize_grid_storage: Actual outermost partition radius vs. multipole_radius_free
  | (-- VB: in principle, multipole_radius_free should be larger, hence this output)
  | Species        1: Confinement radius =              6.000000000000000 AA, multipole_radius_free =              6.029870734432609 AA.
  | Species        1: outer_partition_radius set to              6.029870734432609 AA .
  | The sparse table of interatomic distances needs       2136.99 kbyte instead of      4500.00 kbyte of memory.
  | Net number of integration points:   361560
  | of which are non-zero points    :   274623
  | Numerical average free-atom electrostatic potential    :     -2.86337052 eV
  Renormalizing the initial density to the exact electron count on the 3D integration grid.
  | Initial density: Formal number of electrons (from input files) :     120.0000000000
  | Integrated number of electrons on 3D grid     :     120.0005704495
  | Charge integration error                      :       0.0005704495
  | Normalization factor for density and gradient :       0.9999952463
  Renormalizing the free-atom superposition density to the exact electron count on the 3D integration grid.
  | Formal number of electrons (from input files) :     120.0000000000
  | Integrated number of electrons on 3D grid     :     120.0005704495
  | Charge integration error                      :       0.0005704495
  | Normalization factor for density and gradient :       0.9999952463
  Obtaining max. number of non-zero basis functions in each batch (get_n_compute_maxes).
  | Maximal number of non-zero basis functions:     1828 in task     0
  | Maximal number of non-zero basis functions:     2008 in task     1
  | Maximal number of non-zero basis functions:     1878 in task     2
  | Maximal number of non-zero basis functions:     2051 in task     3
  | Maximal number of non-zero basis functions:     1753 in task     4
  | Maximal number of non-zero basis functions:     1914 in task     5
  | Maximal number of non-zero basis functions:     1777 in task     6
  | Maximal number of non-zero basis functions:     1635 in task     7
  | Maximal number of non-zero basis functions:     2018 in task     8
  | Maximal number of non-zero basis functions:     1971 in task     9
  | Maximal number of non-zero basis functions:     1883 in task    10
  | Maximal number of non-zero basis functions:     1902 in task    11
  | Maximal number of non-zero basis functions:     1998 in task    12
  | Maximal number of non-zero basis functions:     1979 in task    13
  | Maximal number of non-zero basis functions:     1996 in task    14
  | Maximal number of non-zero basis functions:     2092 in task    15
  | Maximal number of non-zero basis functions:     1953 in task    16
  | Maximal number of non-zero basis functions:     2041 in task    17
  | Maximal number of non-zero basis functions:     2055 in task    18
  | Maximal number of non-zero basis functions:     2035 in task    19
  | Maximal number of non-zero basis functions:     1718 in task    20
  | Maximal number of non-zero basis functions:     1700 in task    21
  | Maximal number of non-zero basis functions:     1869 in task    22
  | Maximal number of non-zero basis functions:     2070 in task    23
  | Maximal number of non-zero basis functions:     2108 in task    24
  | Maximal number of non-zero basis functions:     2078 in task    25
  | Maximal number of non-zero basis functions:     1916 in task    26
  | Maximal number of non-zero basis functions:     2133 in task    27
  | Maximal number of non-zero basis functions:     2000 in task    28
  | Maximal number of non-zero basis functions:     2023 in task    29
  | Maximal number of non-zero basis functions:     1924 in task    30
  | Maximal number of non-zero basis functions:     2131 in task    31
  | Maximal number of non-zero basis functions:     1783 in task    32
  | Maximal number of non-zero basis functions:     1643 in task    33
  | Maximal number of non-zero basis functions:     2012 in task    34
  | Maximal number of non-zero basis functions:     1908 in task    35
  | Maximal number of non-zero basis functions:     2019 in task    36
  | Maximal number of non-zero basis functions:     2025 in task    37
  | Maximal number of non-zero basis functions:     1728 in task    38
  | Maximal number of non-zero basis functions:     1570 in task    39
  | Maximal number of non-zero basis functions:     1787 in task    40
  | Maximal number of non-zero basis functions:     2012 in task    41
  | Maximal number of non-zero basis functions:     1858 in task    42
  | Maximal number of non-zero basis functions:     1827 in task    43
  | Maximal number of non-zero basis functions:     2075 in task    44
  | Maximal number of non-zero basis functions:     2071 in task    45
  | Maximal number of non-zero basis functions:     1540 in task    46
  | Maximal number of non-zero basis functions:     1873 in task    47
  | Maximal number of non-zero basis functions:     1995 in task    48
  | Maximal number of non-zero basis functions:     1640 in task    49
  | Maximal number of non-zero basis functions:     1990 in task    50
  | Maximal number of non-zero basis functions:     1664 in task    51
  | Maximal number of non-zero basis functions:     1964 in task    52
  | Maximal number of non-zero basis functions:     1603 in task    53
  | Maximal number of non-zero basis functions:     1840 in task    54
  | Maximal number of non-zero basis functions:     1738 in task    55
  | Maximal number of non-zero basis functions:     2004 in task    56
  | Maximal number of non-zero basis functions:     1699 in task    57
  | Maximal number of non-zero basis functions:     2129 in task    58
  | Maximal number of non-zero basis functions:     1688 in task    59
  | Maximal number of non-zero basis functions:     1949 in task    60
  | Maximal number of non-zero basis functions:     2127 in task    61
  | Maximal number of non-zero basis functions:     1591 in task    62
  | Maximal number of non-zero basis functions:     1840 in task    63
  | Maximal number of non-zero basis functions:     2002 in task    64
  | Maximal number of non-zero basis functions:     2102 in task    65
  | Maximal number of non-zero basis functions:     1673 in task    66
  | Maximal number of non-zero basis functions:     1948 in task    67
  | Maximal number of non-zero basis functions:     1757 in task    68
  | Maximal number of non-zero basis functions:     2122 in task    69
  | Maximal number of non-zero basis functions:     1966 in task    70
  | Maximal number of non-zero basis functions:     1788 in task    71
  | Maximal number of non-zero basis functions:     1761 in task    72
  | Maximal number of non-zero basis functions:     1800 in task    73
  | Maximal number of non-zero basis functions:     1606 in task    74
  | Maximal number of non-zero basis functions:     1990 in task    75
  | Maximal number of non-zero basis functions:     1955 in task    76
  | Maximal number of non-zero basis functions:     1898 in task    77
  | Maximal number of non-zero basis functions:     1673 in task    78
  | Maximal number of non-zero basis functions:     1606 in task    79
  | Maximal number of non-zero basis functions:     1591 in task    80
  | Maximal number of non-zero basis functions:     2056 in task    81
  | Maximal number of non-zero basis functions:     1703 in task    82
  | Maximal number of non-zero basis functions:     1670 in task    83
  | Maximal number of non-zero basis functions:     1712 in task    84
  | Maximal number of non-zero basis functions:     2042 in task    85
  | Maximal number of non-zero basis functions:     1985 in task    86
  | Maximal number of non-zero basis functions:     1913 in task    87
  | Maximal number of non-zero basis functions:     1729 in task    88
  | Maximal number of non-zero basis functions:     1505 in task    89
  | Maximal number of non-zero basis functions:     1849 in task    90
  | Maximal number of non-zero basis functions:     2009 in task    91
  | Maximal number of non-zero basis functions:     1592 in task    92
  | Maximal number of non-zero basis functions:     1504 in task    93
  | Maximal number of non-zero basis functions:     1872 in task    94
  | Maximal number of non-zero basis functions:     1514 in task    95
  | Maximal number of non-zero basis functions:     1839 in task    96
  | Maximal number of non-zero basis functions:     2024 in task    97
  | Maximal number of non-zero basis functions:     1708 in task    98
  | Maximal number of non-zero basis functions:     1521 in task    99
  | Maximal number of non-zero basis functions:     1884 in task   100
  | Maximal number of non-zero basis functions:     1769 in task   101
  | Maximal number of non-zero basis functions:     1762 in task   102
  | Maximal number of non-zero basis functions:     1685 in task   103
  | Maximal number of non-zero basis functions:     1810 in task   104
  | Maximal number of non-zero basis functions:     1913 in task   105
  | Maximal number of non-zero basis functions:     1798 in task   106
  | Maximal number of non-zero basis functions:     2086 in task   107
  | Maximal number of non-zero basis functions:     1982 in task   108
  | Maximal number of non-zero basis functions:     1880 in task   109
  | Maximal number of non-zero basis functions:     1859 in task   110
  | Maximal number of non-zero basis functions:     1786 in task   111
  | Maximal number of non-zero basis functions:     1983 in task   112
  | Maximal number of non-zero basis functions:     1887 in task   113
  | Maximal number of non-zero basis functions:     2093 in task   114
  | Maximal number of non-zero basis functions:     1770 in task   115
  | Maximal number of non-zero basis functions:     1697 in task   116
  | Maximal number of non-zero basis functions:     2026 in task   117
  | Maximal number of non-zero basis functions:     1667 in task   118
  | Maximal number of non-zero basis functions:     1647 in task   119
  | Maximal number of non-zero basis functions:     2014 in task   120
  | Maximal number of non-zero basis functions:     2028 in task   121
  | Maximal number of non-zero basis functions:     1690 in task   122
  | Maximal number of non-zero basis functions:     2056 in task   123
  | Maximal number of non-zero basis functions:     1899 in task   124
  | Maximal number of non-zero basis functions:     1710 in task   125
  | Maximal number of non-zero basis functions:     1865 in task   126
  | Maximal number of non-zero basis functions:     1702 in task   127
  Allocating        1.428 MB for KS_eigenvector_complex
  Integrating Hamiltonian matrix: batch-based integration.
  Time summed over all CPUs for integration: real work       98.041 s, elapsed      108.145 s
  Integrating overlap matrix.
  Time summed over all CPUs for integration: real work       73.109 s, elapsed       81.782 s
  Decreasing sparse matrix size:
  | Tolerance:  0.1000E-12
  Hamiltonian matrix
  | Array has  1704726 nonzero elements out of  1848092 elements
  | Sparsity factor is 0.078
  Overlap matrix
  | Array has  1629026 nonzero elements out of  1848092 elements
  | Sparsity factor is 0.119
  New size of hamiltonian matrix:     1704807

  Updating Kohn-Sham eigenvalues and eigenvectors using ELSI and the (modified) LAPACK eigensolver.
  Singularity check in k-point 128, task 0 (analysis for other k-points/tasks may follow below):
  Overlap matrix is not singular
  | Lowest and highest eigenvalues :  0.8769E-04,  0.1027E+02
  Finished singularity check of overlap matrix
  | Time :     0.443 s
  Starting LAPACK eigensolver
  Finished Cholesky decomposition
  | Time :     0.061 s
  Finished transformation to standard eigenproblem
  | Time :     0.096 s
  Finished solving standard eigenproblem
  | Time :     0.372 s
  Finished back-transformation of eigenvectors
  | Time :     0.012 s

  Obtaining occupation numbers and chemical potential using ELSI.
  | Chemical potential (Fermi level):    -7.89572722 eV
  Writing Kohn-Sham eigenvalues.
  K-point:       1 at    0.000000    0.000000    0.000000 (in units of recip. lattice)

  State    Occupation    Eigenvalue [Ha]    Eigenvalue [eV]
      1       2.00000         -10.179391         -276.99532
      2       2.00000         -10.179387         -276.99522
      3       2.00000         -10.178711         -276.97681
      4       2.00000         -10.178648         -276.97512
      5       2.00000         -10.178387         -276.96800
      6       2.00000         -10.178366         -276.96743
      7       2.00000         -10.178324         -276.96628
      8       2.00000         -10.178311         -276.96593
      9       2.00000         -10.178067         -276.95929
     10       2.00000         -10.178061         -276.95914
     11       2.00000         -10.177922         -276.95536
     12       2.00000         -10.177893         -276.95455
     13       2.00000         -10.177712         -276.94964
     14       2.00000         -10.177676         -276.94864
     15       2.00000         -10.177473         -276.94314
     16       2.00000         -10.177448         -276.94246
     17       2.00000         -10.177319         -276.93894
     18       2.00000         -10.177295         -276.93830
     19       2.00000         -10.177138         -276.93401
     20       2.00000         -10.177110         -276.93325
     21       2.00000          -1.035908          -28.18850
     22       2.00000          -1.027686          -27.96477
     23       2.00000          -1.025811          -27.91373
     24       2.00000          -1.000281          -27.21902
     25       2.00000          -0.999530          -27.19859
     26       2.00000          -0.957474          -26.05420
     27       2.00000          -0.956562          -26.02939
     28       2.00000          -0.901387          -24.52798
     29       2.00000          -0.900969          -24.51660
     30       2.00000          -0.853858          -23.23465
     31       2.00000          -0.796805          -21.68217
     32       2.00000          -0.740654          -20.15421
     33       2.00000          -0.739405          -20.12024
     34       2.00000          -0.657640          -17.89530
     35       2.00000          -0.657289          -17.88575
     36       2.00000          -0.581163          -15.81425
     37       2.00000          -0.580088          -15.78500
     38       2.00000          -0.570427          -15.52212
     39       2.00000          -0.568304          -15.46433
     40       2.00000          -0.563410          -15.33116
     41       2.00000          -0.562513          -15.30674
     42       2.00000          -0.561196          -15.27091
     43       2.00000          -0.561076          -15.26767
     44       2.00000          -0.539920          -14.69197
     45       2.00000          -0.538651          -14.65745
     46       2.00000          -0.506827          -13.79147
     47       2.00000          -0.505169          -13.74636
     48       2.00000          -0.503569          -13.70280
     49       2.00000          -0.503411          -13.69850
     50       2.00000          -0.482710          -13.13520
     51       2.00000          -0.482115          -13.11902
     52       2.00000          -0.473370          -12.88105
     53       2.00000          -0.472399          -12.85462
     54       2.00000          -0.463340          -12.60812
     55       2.00000          -0.462082          -12.57390
     56       2.00000          -0.457961          -12.46176
     57       2.00000          -0.456320          -12.41710
     58       2.00000          -0.405016          -11.02104
     59       2.00000          -0.404625          -11.01041
     60       1.99999          -0.367512          -10.00050
     61       0.00037          -0.227279           -6.18459
     62       0.00000          -0.184230           -5.01314
     63       0.00000          -0.183688           -4.99840
     64       0.00000          -0.114514           -3.11610
     65       0.00000          -0.113229           -3.08111
     66       0.00000          -0.093889           -2.55484
     67       0.00000          -0.080565           -2.19227
     68       0.00000          -0.080003           -2.17698
     69       0.00000          -0.073787           -2.00784
     70       0.00000          -0.072194           -1.96449
     71       0.00000          -0.026121           -0.71080
     72       0.00000          -0.021508           -0.58526
     73       0.00000          -0.020330           -0.55321
     74       0.00000          -0.019307           -0.52538
     75       0.00000          -0.014852           -0.40414
     76       0.00000          -0.005939           -0.16160
     77       0.00000          -0.005605           -0.15251
     78       0.00000           0.005279            0.14365
     79       0.00000           0.006013            0.16363
     80       0.00000           0.016194            0.44065
     81       0.00000           0.016484            0.44856
     82       0.00000           0.017194            0.46786
     83       0.00000           0.017426            0.47420
     84       0.00000           0.032510            0.88464
     85       0.00000           0.032925            0.89593
     86       0.00000           0.041052            1.11710
     87       0.00000           0.051999            1.41496
[...]

  ESTIMATED overall HOMO-LUMO gap:      0.01501411 eV between HOMO at k-point 121 and LUMO at k-point 212
  | This appears to be an indirect band gap.
  | Smallest direct gap :      0.06362686 eV for k_point 121 at    0.000000    0.000000    0.320000 (in units of recip. lattice)
  However, this system has fractional occupation numbers. Since we use a finite k-point grid,
  this material is metallic within the approximate finite broadening function (occupation_type)
  applied to determine the occupation numbers.
  | Chemical Potential                          :    -4.49798712 eV

  Self-consistency cycle converged.


------------------------------------------------------------
  End self-consistency iteration #    11       :  max(cpu_time)    wall_clock(cpu1)
  | Time for this iteration                    :       36.233 s          36.487 s
  | Charge density & force component update    :       32.130 s          32.361 s
  | Density mixing                             :        0.002 s           0.001 s
  | Hartree multipole update                   :        0.014 s           0.015 s
  | Hartree multipole summation                :        1.163 s           1.167 s
  | Hartree pot. SCF incomplete forces         :        0.755 s           0.758 s
  | Integration                                :        0.916 s           0.923 s
  | Solution of K.-S. eqns.                    :        1.247 s           1.257 s
  | Total energy evaluation                    :        0.001 s           0.000 s

  Partial memory accounting:
  | Current value for overall tracked memory usage:
  |   Minimum:       35.186 MB (on task   0)
  |   Maximum:       38.043 MB (on task   1)
  |   Average:       37.931 MB
  | Peak value for overall tracked memory usage:
  |   Minimum:      129.041 MB (on task  10 after allocating d_wave)
  |   Maximum:      140.767 MB (on task  38 after allocating d_wave)
  |   Average:      136.038 MB
  | Largest tracked array allocation so far:
  |   Minimum:       30.335 MB (density_matrix_con on task  10)
  |   Maximum:       36.258 MB (density_matrix_con on task  38)
  |   Average:       33.900 MB
  Note:  These values currently only include a subset of arrays which are explicitly tracked.
  The "true" memory usage will be greater.
------------------------------------------------------------
  Removing unitary transformations (pure translations, rotations) from forces on atoms.
  Atomic forces before filtering:
  | Net force on center of mass :  -0.185521E-05 -0.394451E-06  0.298546E-07 eV/A
  Removing unitary transformations (rotations) from forces on lattice.
  Lattice forces before filtering:
  | Net torque relative to origin:  -0.810517E-21  0.583435E-21  0.110300E-18 eV
  Atomic forces after filtering:
  | Net force on center of mass :   0.326671E-18  0.871124E-19 -0.226492E-17 eV/A
  Lattice forces after filtering:
  | Net torque relative to origin:  -0.810517E-21  0.583435E-21  0.110300E-18 eV

  Energy and forces in a compact form:
  | Total energy uncorrected      :         -0.207419221022655E+05 eV
  | Total energy corrected        :         -0.207420061873024E+05 eV  <-- do not rely on this value for anything but (periodic) metals
  | Electronic free energy        :         -0.207420902723393E+05 eV
  Total atomic forces (unitary forces cleaned) [eV/Ang]:
  |    1         -0.371954118702879E-05         -0.553309504007768E-03          0.245842897933461E-03
  |    2          0.295820821837829E-04         -0.124080886100955E-03          0.155687642683518E-02
  |    3         -0.925174576464668E-03         -0.812515849273066E-04          0.249082651136673E-02
  |    4         -0.639490275000556E-03          0.976556250105290E-04          0.301212639529760E-02
  |    5          0.232863033746574E-04         -0.173695339651407E-03          0.263939419428382E-03
  |    6         -0.125835778310488E-03          0.410512054816631E-03          0.739361635068000E-03
  |    7         -0.348162773104918E-03          0.826660500775607E-04         -0.260583276163821E-02
  |    8          0.971518745270471E-03          0.141411529917650E-03         -0.223241298362141E-02
  |    9          0.112721251605222E-02         -0.455182028216419E-03         -0.234602186084379E-02
  |   10          0.140765353193436E-04         -0.184517187558447E-03         -0.136545005160763E-02
  |   11          0.188219196871792E-03          0.360040940649002E-03         -0.827920893769579E-03
  |   12         -0.263582745826205E-04         -0.562208607248692E-04         -0.200942590948706E-02
  |   13          0.149319032287604E-02         -0.226120819392668E-03         -0.226895152003994E-02
  |   14          0.635093731914518E-04         -0.183211959663173E-03         -0.299055520954733E-02
  |   15         -0.154009160140247E-03         -0.274295571966603E-03          0.367372834819674E-03
  |   16         -0.213379338145645E-03         -0.150943262892116E-03         -0.601779207686960E-04
  |   17          0.459110894522493E-03          0.427014526956993E-03          0.269140292341970E-02
  |   18         -0.141126684146525E-02          0.200193268207754E-03          0.250792655896539E-02
  |   19         -0.480886000166279E-03          0.268645344682203E-03          0.197047066784743E-02
  |   20         -0.414234110945563E-04          0.474689664783410E-03          0.860602840342102E-03

  ------------------------------------ 
  Start decomposition of the XC Energy 
  ------------------------------------ 
  X and C from original XC functional choice 
  Hartree-Fock Energy :          0.000000000 Ha              0.000000000 eV
  X Energy            :       -104.405059676 Ha          -2841.006222587 eV
  C Energy            :         -4.269406557 Ha           -116.176463401 eV
  Total XC Energy     :       -108.674466233 Ha          -2957.182685988 eV
  ------------------------------------ 
  LDA X and C from self-consistent density 
  X Energy LDA        :        -94.214205611 Ha          -2563.698974242 eV
  C Energy LDA        :         -7.953513374 Ha           -216.426110542 eV
  ------------------------------------ 
  End decomposition of the XC Energy 
  ------------------------------------ 

------------------------------------------------------------
  Relaxation / MD: End force evaluation.       :  max(cpu_time)    wall_clock(cpu1)
  | Time for this force evaluation             :       86.136 s          86.959 s

------------------------------------------------------------
  Geometry optimization: Attempting to predict improved coordinates.

  +-------------------------------------------------------------------+
  | Generalized derivatives on lattice vectors [eV/A]                 |
  +-------------------------------------------------------------------+
  |lattice_vector       0.00058062      -0.00000199       0.00002663  |
  |lattice_vector       0.00000902      -0.00031972       0.00001233  |
  |lattice_vector       0.00021008       0.00008309       0.00023976  |
  +-------------------------------------------------------------------+
  | Forces on lattice vectors cleaned from atomic contributions [eV/A]|
  +-------------------------------------------------------------------+
  |lattice_vector      -0.00058062       0.00000199      -0.00002663  |
  |lattice_vector      -0.00000902       0.00031972      -0.00001233  |
  |lattice_vector      -0.00021008      -0.00008309      -0.00023976  |
  +-------------------------------------------------------------------+
  | Projected forces for shape relaxation  [eV/A]                     |
  +-------------------------------------------------------------------+
  |lattice_vector      -0.00057971       0.00002384       0.00000014  |
  |lattice_vector       0.00001353       0.00031877      -0.00000008  |
  |lattice_vector       0.00000049      -0.00000002      -0.00023933  |
  +-------------------------------------------------------------------+
  Removing unitary transformations (pure translations, rotations) from forces on atoms.
  Atomic forces before filtering:
  | Net force on center of mass :   0.326671E-18  0.871124E-19 -0.226492E-17 eV/A
  Removing unitary transformations (rotations) from forces on lattice.
  Lattice forces before filtering:
  | Net torque relative to origin:   0.172974E-21 -0.934102E-22  0.100325E-18 eV
  Atomic forces after filtering:
  | Net force on center of mass :  -0.435562E-19  0.871124E-19 -0.209070E-17 eV/A
  Lattice forces after filtering:
  | Net torque relative to origin:   0.172974E-21 -0.934102E-22  0.100325E-18 eV
  Net remaining forces (excluding translations, rotations) in present geometry:
  || Forces on atoms   || =   0.301213E-02 eV/A.
  || Forces on lattice || =   0.579714E-03 eV/A^3.
  Maximum force component is  0.301213E-02 eV/A.
  Present geometry is converged.

------------------------------------------------------------
  Final atomic structure:
                         x [A]             y [A]             z [A]
  lattice_vector        19.10157004       -0.78557505       -0.00473152
  lattice_vector         0.78501144       18.49291161       -0.00460971
  lattice_vector        -0.00511693        0.00024077        2.47446846

            atom        12.55637049        9.06269780        1.24179687  C
            atom        11.57092863        7.17342215        0.00267262  C
            atom         9.65877681        6.22565711        1.23599592  C
            atom         7.55927486        6.58106155       -0.00563487  C
            atom         6.06531406        8.10455653        1.22836534  C
            atom         5.75700560       10.21352389       -0.00973293  C
            atom         6.74245945       12.10277189        1.22943095  C
            atom         8.65459246       13.05054544       -0.00394262  C
            atom        10.75410290       12.69519436        1.23771595  C
            atom        12.24807735       11.17168870        0.00372662  C
            atom        12.36447444        8.36708781        0.00423719  C
            atom        11.00233216        6.72508818        1.23880873  C
            atom         8.93977405        6.19539225       -0.00268614  C
            atom         6.95529576        6.98094901        1.23037681  C
            atom         5.81642070        8.78139419       -0.00946489  C
            atom         5.94890176       10.90912234        1.22785220  C
            atom         7.31104334       12.55109770       -0.00672865  C
            atom         9.37359409       13.08082875        1.23473979  C
            atom        11.35810181       12.29530685        0.00172754  C
            atom        12.49696720       10.49483507        1.24152638  C

  Fractional coordinates:
                         L1                L2                L3
       atom_frac         0.63623214        0.51708377        0.50402373  C
       atom_frac         0.58878943        0.41291279        0.00297514  C
       atom_frac         0.49109547        0.35750611        0.50110461  C
       atom_frac         0.38045155        0.37203092       -0.00085667  C
       atom_frac         0.29913031        0.45095257        0.49782790  C
       atom_frac         0.27820536        0.56411212       -0.00235048  C
       atom_frac         0.32564876        0.66828164        0.49871412  C
       atom_frac         0.42334171        0.72368874        0.00056433  C
       atom_frac         0.53398596        0.70916683        0.50253684  C
       atom_frac         0.61530795        0.63024464        0.00385667  C
       atom_frac         0.62761269        0.47910918        0.00380498  C
       atom_frac         0.56020273        0.38744837        0.50242926  C
       atom_frac         0.45345303        0.35427702        0.00044151  C
       atom_frac         0.34813403        0.39227540        0.49862518  C
       atom_frac         0.28448748        0.48693690       -0.00237392  C
       atom_frac         0.28682485        0.60208609        0.49787855  C
       atom_frac         0.35423482        0.69374559       -0.00074950  C
       atom_frac         0.46098406        0.72691883        0.50122758  C
       atom_frac         0.56630452        0.68892239        0.00306440  C
       atom_frac         0.62995062        0.59425943        0.50404618  C
------------------------------------------------------------

------------------------------------------------------------------------------
  Final output of selected total energy values:

  The following output summarizes some interesting total energy values
  at the end of a run (AFTER all relaxation, molecular dynamics, etc.).

  | Total energy of the DFT / Hartree-Fock s.c.f. calculation      :         -20741.922102265 eV
  | Final zero-broadening corrected energy (caution - metals only) :         -20742.006187302 eV
  | For reference only, the value of 1 Hartree used in FHI-aims is :             27.211384500 eV
  | For reference only, the overall average (free atom contribution
  | + realspace contribution) of the electrostatic potential after
  | s.c.f. convergence is                                          :             -2.562237602 eV

  Before relying on these values, please be sure to understand exactly which
  total energy value is referred to by a given number. Different objects may
  all carry the same name 'total energy'. Definitions:

  Total energy of the DFT / Hartree-Fock s.c.f. calculation:
  | Note that this energy does not include ANY quantities calculated after the
  | s.c.f. cycle, in particular not ANY RPA, MP2, etc. many-body perturbation terms.

  Final zero-broadening corrected energy:
  | For metallic systems only, a broadening of the occupation numbers at the Fermi
  | level can be extrapolated back to zero broadening by an electron-gas inspired
  | formula. For all systems that are not real metals, this value can be
  | meaningless and should be avoided.

------------------------------------------------------------------------------
  Methods described in the following list of references were used in this FHI-aims run.
  If you publish the results, please make sure to cite these reference if they apply.
  FHI-aims is an academic code, and for our developers (often, Ph.D. students
  and postdocs), scientific credit in the community is essential.
  Thank you for helping us!

  For any use of FHI-aims, please cite:

    Volker Blum, Ralf Gehrke, Felix Hanke, Paula Havu, Ville Havu,
    Xinguo Ren, Karsten Reuter, and Matthias Scheffler
    'Ab initio molecular simulations with numeric atom-centered orbitals'
    Computer Physics Communications 180, 2175-2196 (2009)
    http://dx.doi.org/10.1016/j.cpc.2009.06.022


  For the analytical stress tensor used in your run, please cite:

    Franz Knuth, Christian Carbogno, Viktor Atalla, Volker Blum, Matthias Scheffler
    'All-electron formalism for total energy strain derivatives and
    stress tensor components for numeric atom-centered orbitals'
    Computer Physics Communications 190, 33-50 (2015).
    http://dx.doi.org/10.1016/j.cpc.2015.01.003


  The provided symmetry information was generated with SPGlib:

    Atsushi Togo, Yusuke Seto, Dimitar Pashov
    SPGlib 1.7.3 obtained from http://spglib.sourceforge.net
    Copyright (C) 2008 Atsushi Togo


  The ELSI infrastructure was used in your run to solve the Kohn-Sham electronic structure.
  Please check out http://elsi-interchange.org to learn more.
  If scalability is important for your project, please acknowledge ELSI by citing:

    V. W-z. Yu, F. Corsetti, A. Garcia, W. P. Huhn, M. Jacquelin, W. Jia,
    B. Lange, L. Lin, J. Lu, W. Mi, A. Seifitokaldani, A. Vazquez-Mayagoitia,
    C. Yang, H. Yang, and V. Blum
    'ELSI: A unified software interface for Kohn-Sham electronic structure solvers'
    Computer Physics Communications 222, 267-285 (2018).
    http://dx.doi.org/10.1016/j.cpc.2017.09.007


  For the real-space grid partitioning and parallelization used in this calculation, please cite:

    Ville Havu, Volker Blum, Paula Havu, and Matthias Scheffler,
    'Efficient O(N) integration for all-electron electronic structure calculation'
    'using numerically tabulated basis functions'
    Journal of Computational Physics 228, 8367-8379 (2009).
    http://dx.doi.org/10.1016/j.jcp.2009.08.008


  The high-level electronic structure method used in your calculation
  employed our efficient localized resolution of identity for the Coulomb operator.
  Some calculations, especially large-scale hybrid density functional theory,
  are only possible thanks to this development. For this feature, please cite:

    Arvid Ihrig, Juergen Wieferink, Igor Ying Zhang, Matti Ropo, Xinguo Ren,
    Patrick Rinke, Matthias Scheffler, and Volker Blum,
    'Accurate localized resolution of identity approach for linear-scaling
    hybrid density functionals and for many-body perturbation theory'
    New Journal of Physics 117, 093020 (2015).
    http://dx.doi.org/10.1088/1367-2630/17/9/093020

  Of course, there are many other important community references, e.g., those cited in the
  above references. Our list is limited to references that describe implementations in the
  FHI-aims code. The reason is purely practical (length of this list) - please credit others as well.

------------------------------------------------------------
          Leaving FHI-aims.
          Date     :  20220323, Time     :  123333.696

          Computational steps:
          | Number of self-consistency cycles          :          363
          | Number of SCF (re)initializations          :           20
          | Number of relaxation steps                 :           19

          Detailed time accounting                     :  max(cpu_time)    wall_clock(cpu1)
          | Total time                                 :     2385.249 s        2401.233 s
          | Preparation time                           :        0.112 s           0.141 s
          | Boundary condition initalization           :        2.632 s           2.554 s
          | Grid partitioning                          :        6.237 s           6.259 s
          | Preloading free-atom quantities on grid    :        4.213 s           4.231 s
          | Free-atom superposition energy             :        0.402 s           0.404 s
          | Total time for integrations                :      350.507 s         353.083 s
          | Total time for solution of K.-S. equations :      458.302 s         461.524 s
          | Total time for EV reorthonormalization     :        2.494 s           1.327 s
          | Total time for density & force components  :     1327.416 s        1335.838 s
          | Total time for mixing & preconditioning    :       41.282 s          41.409 s
          | Total time for Hartree multipole update    :        5.137 s           5.149 s
          | Total time for Hartree multipole sum       :      152.407 s         153.002 s
          | Total time for total energy evaluation     :        0.266 s           0.186 s
          | Total time NSC force correction            :       30.214 s          30.395 s

          Partial memory accounting:
          | Residual value for overall tracked memory usage across tasks:     0.000000 MB (should be 0.000000 MB)
          | Peak values for overall tracked memory usage:
          |   Minimum:      129.041 MB (on task  10 after allocating d_wave)
          |   Maximum:      140.767 MB (on task  38 after allocating d_wave)
          |   Average:      136.038 MB
          | Largest tracked array allocation:
          |   Minimum:       30.335 MB (density_matrix_con on task  10)
          |   Maximum:       36.258 MB (density_matrix_con on task  38)
          |   Average:       33.900 MB
          Note:  These values currently only include a subset of arrays which are explicitly tracked.
          The "true" memory usage will be greater.

          Have a nice day.
------------------------------------------------------------
