20
Lattice="19.1230500920856 -0.786458438781509 -0.00473684487563405 0.785459901084019 18.5034761550599 -0.00461234345356856 -0.00505965426374022 0.00023807418300801 2.44677315902897" Properties=species:S:1:pos:R:3:forces:R:3 energy=-20742.0061873024 free_energy=-20741.9221022655 pbc="F F T"
C       12.59704359       9.06219836       1.22071447      -0.00000372      -0.00055331       0.00024584
C       11.61044991       7.16908155      -0.00268212       0.00002958      -0.00012408       0.00155688
C        9.67592936       6.23131177       1.22079654      -0.00092517      -0.00008125       0.00249083
C        7.55659953       6.57863063      -0.00264952      -0.00063949       0.00009766       0.00301213
C        6.04711868       8.10282994       1.22072842       0.00002329      -0.00017370       0.00026394
C        5.73661707      10.22420932      -0.00254751      -0.00012584       0.00041051       0.00073936
C        6.72373783      12.11755896       1.22109659      -0.00034816       0.00008267      -0.00260583
C        8.65689885      13.05729073      -0.00247333       0.00097152       0.00014141      -0.00223241
C       10.77657084      12.70715301       1.22082029       0.00112721      -0.00045518      -0.00234602
C       12.28675221      11.18438977      -0.00305336       0.00001408      -0.00018452      -0.00136545
C       12.40597451       8.36521853      -0.00283078       0.00018822       0.00036004      -0.00082792
C       11.03210114       6.72107452       1.22041822      -0.00002636      -0.00005622      -0.00200943
C        8.95070070       6.20217929      -0.00324578       0.00149319      -0.00022612      -0.00226895
C        6.94254982       6.97494505       1.22084553       0.00006351      -0.00018321      -0.00299056
C        5.79739107       8.78590342      -0.00253097      -0.00015401      -0.00027430       0.00036737
C        5.92827893      10.92059117       1.22090935      -0.00021338      -0.00015094      -0.00006018
C        7.30075727      12.56731494      -0.00216837       0.00045911       0.00042701       0.00269140
C        9.38237459      13.08361492       1.22153133      -0.00141127       0.00020019       0.00250793
C       11.39156590      12.31204881      -0.00248262      -0.00048089       0.00026865       0.00197047
C       12.53595382      10.50080875       1.22056780      -0.00004142       0.00047469       0.00086060
