 +-------------------------------------------------+
 |                                                 |
 |      CCC   AA    SSS  TTTTT  EEEEE  PPPP        |
 |     C     A  A  S       T    E      P   P       |
 |     C     AAAA   SS     T    EEE    PPPP        |
 |     C     A  A     S    T    E      P           |
 |      CCC  A  A  SSS     T    EEEEE  P           |
 |                                                 |
 +-------------------------------------------------+
 |                                                 |
 | Welcome to Academic Release CASTEP version 22.1 |          
 | Ab Initio Total Energy Program                  |
 |                                                 |
 | Authors:                                        |
 | M. Segall, M. Probert, C. Pickard, P. Hasnip,   |
 | S. Clark, K. Refson, J. R. Yates, M. Payne      |
 |                                                 |
 | Contributors:                                   |
 | P. Lindan, P. Haynes, J. White, V. Milman,      |
 | N. Govind, M. Gibson, P. Tulip, V. Cocula,      |
 | B. Montanari, D. Quigley, M. Glover,            |
 | L. Bernasconi, A. Perlov, M. Plummer,           |
 | E. McNellis, J. Meyer, J. Gale, D. Jochym       |
 | J. Aarons, B. Walker, R. Gillen, D. Jones       |
 | T. Green, I. J. Bush, C. J. Armstrong,          |
 | E. J. Higgins, E. L. Brown, M. S. McFly,        |
 | J. Wilkins, B-C. Shih, P. J. P. Byrne,          |
 | R. J. Maurer, J. C. Womack, J. Dziedzic,        |
 | A. Bartok-Partay, L. LeBlanc, T. K. Stenczel,   |
 | J. Kermode, S. Sturniolo                        |
 |                                                 |
 | Copyright (c) 2000 - 2021                       |
 |                                                 |
 |     Distributed under license from Cambridge    |
 |     Enterprise for academic use only.           |
 |                                                 |
 | Please cite                                     |
 |                                                 |
 |     "First principles methods using CASTEP"     |
 |                                                 |
 |         Zeitschrift fuer Kristallographie       |
 |           220(5-6) pp. 567-570 (2005)           |
 |                                                 |
 | S. J. Clark, M. D. Segall, C. J. Pickard,       |
 | P. J. Hasnip, M. J. Probert, K. Refson,         |
 | M. C. Payne                                     |
 |                                                 |
 |       in all publications arising from          |
 |              your use of CASTEP                 |
 |                                                 |
 +-------------------------------------------------+
 |                                                 |
 |              http://www.castep.org              |
 |                                                 |
 +-------------------------------------------------+



 Compiled for linux_x86_64_gfortran10 on Thu, 07 Oct 2021 22:56:02 +0100
 from code version f361359b0+  default  Mon Sep 27 15:13:22 2021 +0100
 Compiler: GNU Fortran 10.2.0; Optimisation: fast
 MATHLIBS: openblas (LAPACK version 3.9.0)
 FFT Lib : fftw3 version fftw-3.3.8-sse2-avx-avx2-avx2_128
 Fundamental constants values: CODATA 2014

 Run started: Mon, 28 Mar 2022 19:54:30 +0100

 Atomic calculation performed for Be: 1s2 2s2

 Converged in 44 iterations to an ae energy of -399.040 eV

   ============================================================                
   | Pseudopotential Report - Date of generation 28-03-2022   |                
   ------------------------------------------------------------                
   | Element: Be Ionic charge:  4.00 Level of theory: BLYP    |                
   | Atomic Solver: Koelling-Harmon                           |                
   |                                                          |                
   |               Reference Electronic Structure             |                
   |         Orbital         Occupation         Energy        |                
   |            1s              2.000           -3.917        |                
   |            2s              2.000           -0.201        |                
   |                                                          |                
   |                 Pseudopotential Definition               |                
   |        Beta     l      e      Rc     scheme   norm       |                
   |          1      0   -3.917   0.996     qc      0         |                
   |          2      0   -0.201   0.996     qc      0         |                
   |          3      0    0.250   0.996     qc      0         |                
   |          4      1    0.000   0.996     qc      0         |                
   |          5      1    0.250   0.996     qc      0         |                
   |         loc     2    0.000   0.996     pn      0         |                
   |                                                          |                
   | Augmentation charge Rinner = 0.702                       |                
   | No partial core correction                               |                
   ------------------------------------------------------------                
   | "2|1.0|14|16|18|10U:20:21(qc=7)"                         |                
   ------------------------------------------------------------                
   |      Author: Chris J. Pickard, Cambridge University      |                
   ============================================================                

 Atomic calculation performed for C: 1s2 2s2 2p2

 Converged in 56 iterations to an ae energy of -1029.069 eV

   ============================================================                
   | Pseudopotential Report - Date of generation 28-03-2022   |                
   ------------------------------------------------------------                
   | Element: C Ionic charge:  4.00 Level of theory: BLYP     |                
   | Atomic Solver: Koelling-Harmon                           |                
   |                                                          |                
   |               Reference Electronic Structure             |                
   |         Orbital         Occupation         Energy        |                
   |            2s              2.000           -0.500        |                
   |            2p              2.000           -0.192        |                
   |                                                          |                
   |                 Pseudopotential Definition               |                
   |        Beta     l      e      Rc     scheme   norm       |                
   |          1      0   -0.500   1.395     qc      0         |                
   |          2      0    0.250   1.395     qc      0         |                
   |          3      1   -0.192   1.395     qc      0         |                
   |          4      1    0.250   1.395     qc      0         |                
   |         loc     2    0.000   1.395     pn      0         |                
   |                                                          |                
   | Augmentation charge Rinner = 0.983                       |                
   | Partial core correction Rc = 0.983                       |                
   ------------------------------------------------------------                
   | "2|1.4|10|12|13|20:21(qc=7)"                             |                
   ------------------------------------------------------------                
   |      Author: Chris J. Pickard, Cambridge University      |                
   ============================================================                

 Pseudo atomic calculation performed for Be 1s2 2s2

 Converged in 25 iterations to a total energy of -389.3029 eV

 Pseudo atomic calculation performed for C 2s2 2p2

 Converged in 36 iterations to a total energy of -148.5530 eV
 Calculation parallelised over 250 processes.
 Data is distributed by k-point(250-way)

 ************************************ Title ************************************
 

 ***************************** General Parameters ******************************
  
 output verbosity                               : normal  (1)
 write checkpoint data to                       : BeC_tube+wire.check
 type of calculation                            : geometry optimization
 stress calculation                             : off
 density difference calculation                 : off
 electron localisation func (ELF) calculation   : off
 Hirshfeld analysis                             : off
 polarisation (Berry phase) analysis            : off
 molecular orbital projected DOS                : off
 deltaSCF calculation                           : off
 unlimited duration calculation
 timing information                             : on
 memory usage estimate                          : on
 write extra output files                       : on
 write final potential to formatted file        : off
 write final density to formatted file          : off
 write BibTeX reference list                    : on
 write OTFG pseudopotential files               : on
 write electrostatic potential file             : on
 write bands file                               : on
 checkpoint writing                             : both castep_bin and check files
  
 output         length unit                     : A
 output           mass unit                     : amu
 output           time unit                     : ps
 output         charge unit                     : e
 output           spin unit                     : hbar/2
 output         energy unit                     : eV
 output          force unit                     : eV/A
 output       velocity unit                     : A/ps
 output       pressure unit                     : GPa
 output     inv_length unit                     : 1/A
 output      frequency unit                     : cm-1
 output force constant unit                     : eV/A**2
 output         volume unit                     : A**3
 output   IR intensity unit                     : (D/A)**2/amu
 output         dipole unit                     : D
 output         efield unit                     : eV/A/e
 output        entropy unit                     : J/mol/K
 output    efield chi2 unit                     : pm/V
  
 wavefunctions paging                           : none
 random number generator seed                   : randomised (195430363)
 data distribution                              : k-point only
 optimization strategy                          : maximize speed(+++)

 *********************** Exchange-Correlation Parameters ***********************
  
 using functional                               : BLYP
 relativistic treatment                         : Koelling-Harmon
 DFT+D: Semi-empirical dispersion correction    : off

 ************************* Pseudopotential Parameters **************************
  
 pseudopotential representation                 : reciprocal space
 <beta|phi> representation                      : reciprocal space
 spin-orbit coupling                            : off

 **************************** Basis Set Parameters *****************************
  
 plane wave basis set cut-off                   :  1000.0000   eV
 size of standard grid                          :     2.0000
 size of   fine   gmax                          :    32.4018   1/A
 finite basis set correction                    : automatic
 number of sample energies                      :          3
           sample  spacing                      :     5.0000   eV

 **************************** Electronic Parameters ****************************
  
 number of  electrons                           :  84.00    
 net charge of system                           :  0.000    
 treating system as non-spin-polarized
 number of bands                                :         77

 ********************* Electronic Minimization Parameters **********************
  
 Method: Treating system as metallic with density mixing treatment of electrons,
         and number of  SD  steps               :          1
         and number of  CG  steps               :          4
  
 total energy / atom convergence tol.           : 0.1000E-10   eV
 eigen-energy convergence tolerance             : 0.2727E-11   eV
 max force / atom convergence tol.              : ignored
 convergence tolerance window                   :          3   cycles
 max. number of SCF cycles                      :        200
 number of fixed-spin iterations                :         10
 smearing scheme                                : Gaussian
 smearing width                                 : 0.5000E-01   eV
 Fermi energy convergence tolerance             : 0.2721E-13   eV
 periodic dipole correction                     : NONE

 ************************** Density Mixing Parameters **************************
  
 density-mixing scheme                          : Pulay
 max. length of mixing history                  :         20
 charge density mixing amplitude                : 0.8000    
 cut-off energy for mixing                      :  1000.       eV

 *********************** Population Analysis Parameters ************************
  
 Population analysis with cutoff                :  3.000       A
 Population analysis output                     : summary and pdos components

 ********************** Geometry Optimization Parameters ***********************
  
 optimization method                            : LBFGS
 max. no. of LBFGS updates                      : unbounded
 preconditioned LBFGS is activated
 preconditioner type                            : EXP
     stabilization constant                     :     0.1000
     parameter A                                :     3.0000
     nearest neighbor distance                  : automatic
     cut-off distance                           : automatic
     parameter mu                               : automatic
 variable cell method                           : fixed basis quality
 max. number of steps                           :         30
 estimated bulk modulus                         :  500.0       GPa
 estimated <frequency>                          :  1668.       cm-1
 geom line minimiser                            : on
 with line minimiser tolerance                  :     0.4000
 total energy convergence tolerance             : 0.2000E-04   eV/atom
        max ionic |force| tolerance             : 0.1000E-02   eV/A
 max ionic |displacement| tolerance             : 0.1000E-02   A
   max |stress component| tolerance             : 0.1000       GPa
 convergence tolerance window                   :          2   steps
 backup results every                           :          5   steps
 write geom trajectory file                     : on

 *******************************************************************************
  

                           -------------------------------
                                      Unit Cell
                           -------------------------------
        Real Lattice(A)                      Reciprocal Lattice(1/A)
    19.1230500    -0.7864580    -0.0047370        0.327993637  -0.013922938   0.000679655
     0.7854600    18.5034760    -0.0046120        0.013940789   0.338976058  -0.000004143
    -0.0050600     0.0002380     2.4467730        0.000661279   0.000611992   2.567949094

                       Lattice parameters(A)       Cell Angles
                    a =     19.139216          alpha =   90.013725
                    b =     18.520140          beta  =   90.132799
                    c =      2.446778          gamma =   89.924318

                       Current cell volume =           867.284252       A**3
                                   density =             0.287364   AMU/A**3
                                           =             0.477179     g/cm^3

                           -------------------------------
                                     Cell Contents
                           -------------------------------
                         Total number of ions in cell =   21
                      Total number of species in cell =    2
                        Max number of any one species =   20

            xxxxxxxxxxxxxxxxxxxxxxxxxxxxxxxxxxxxxxxxxxxxxxxxxxxxxxxxxxxx
            x  Element    Atom        Fractional coordinates of atoms  x
            x            Number           u          v          w      x
            x----------------------------------------------------------x
            x  Be           1         0.457604   0.540465   0.378835   x 
            x  C            1         0.637640   0.516852   0.501116   x 
            x  C            2         0.590200   0.412531   0.000824   x 
            x  C            3         0.491425   0.357645   0.500567   x 
            x  C            4         0.379890   0.371681   0.000353   x 
            x  C            5         0.297847   0.450562   0.500339   x 
            x  C            6         0.276806   0.564321   0.000558   x 
            x  C            7         0.324272   0.668656   0.500952   x 
            x  C            8         0.422972   0.723645   0.001172   x 
            x  C            9         0.534531   0.709457   0.501323   x 
            x  C           10         0.616607   0.630656   0.001135   x 
            x  C           11         0.629078   0.478827   0.000963   x 
            x  C           12         0.561134   0.387077   0.500603   x 
            x  C           13         0.453499   0.354465   0.000219   x 
            x  C           14         0.347090   0.391699   0.500372   x 
            x  C           15         0.283165   0.486860   0.000431   x 
            x  C           16         0.285400   0.602315   0.500675   x 
            x  C           17         0.353265   0.694202   0.001106   x 
            x  C           18         0.460917   0.726674   0.501504   x 
            x  C           19         0.567378   0.689507   0.001383   x 
            x  C           20         0.631263   0.594329   0.501190   x 
            xxxxxxxxxxxxxxxxxxxxxxxxxxxxxxxxxxxxxxxxxxxxxxxxxxxxxxxxxxxx


                         No user defined ionic velocities

                           -------------------------------
                                   Details of Species
                           -------------------------------

                               Mass of species in AMU
                                    Be    9.0121870
                                    C   12.0107000

                          Electric Quadrupole Moment (Barn)
                                    Be    0.0528800 Isotope  9
                                    C    0.0332700 Isotope 11

                          Files used for pseudopotentials:
                                    Be 2|1.0|14|16|18|10U:20:21(qc=7)
                                    C 2|1.4|10|12|13|20:21(qc=7)

                           -------------------------------
                              k-Points For BZ Sampling
                           -------------------------------
                       MP grid size for SCF calculation is  1  1500
                            with an offset of   0.000  0.000  0.000
                       Number of kpoints used =           250

                           -------------------------------
                               Symmetry and Constraints
                           -------------------------------

                      Maximum deviation from symmetry =  0.00000         ANG

                      Number of symmetry operations   =           1
                      Number of ionic constraints     =           3
                      Point group of crystal =     1: C1, 1, 1
                      Space group of crystal =     1: P1, P 1

             Set iprint > 1 for details on symmetry rotations/translations

                         Centre of mass is constrained
             Set iprint > 1 for details of linear ionic constraints

                         Number of cell constraints= 5
                         Cell constraints are:  0 0 3 0 0 0

                         External pressure/stress (GPa)
                          0.00000   0.00000   0.00000
                                    0.00000   0.00000
                                              0.00000
  
+---------------- MEMORY AND SCRATCH DISK ESTIMATES PER PROCESS --------------+
|                                                     Memory          Disk    |
| Baseline code, static data and system overhead      597.0 MB         0.0 MB |
| BLAS internal memory storage                          0.0 MB         0.0 MB |
| Model and support data                             1784.8 MB         0.0 MB |
| Electronic energy minimisation requirements         622.6 MB         0.0 MB |
| Force calculation requirements                      150.3 MB         0.0 MB |
|                                               ----------------------------- |
| Approx. total storage required per process         3004.4 MB         0.0 MB |
|                                                                             |
| Requirements will fluctuate during execution and may exceed these estimates |
+-----------------------------------------------------------------------------+
Calculating finite basis set correction with  3 cut-off energies.
Calculating total energy with cut-off of  990.000 eV.
Calculating approximate eigenstates for fixed initial Hamiltonian
Cut-off for approx. calculation is   89.988 eV
Improving approx. states at cut-off of  494.993 eV
Resetting cut-off to  989.987 eV
------------------------------------------------------------------------ <-- SCF
SCF loop      Energy           Fermi           Energy gain       Timer   <-- SCF
                               energy          per atom          (sec)   <-- SCF
------------------------------------------------------------------------ <-- SCF
Initial  -3.22366969E+003  0.00000000E+000                        87.29  <-- SCF
      1  -3.54028236E+003 -3.98654937E+000   1.50767936E+001     141.99  <-- SCF
      2  -3.54029295E+003 -3.98681252E+000   5.04139934E-004     198.09  <-- SCF
      3  -3.53170352E+003 -3.42791782E+000  -4.09020348E-001     262.08  <-- SCF
      4  -3.53136807E+003 -3.17241737E+000  -1.59739703E-002     325.25  <-- SCF
      5  -3.53127083E+003 -2.80899802E+000  -4.63039622E-003     391.18  <-- SCF
      6  -3.53124164E+003 -2.85237953E+000  -1.38965776E-003     454.31  <-- SCF
      7  -3.53116341E+003 -2.60185275E+000  -3.72552528E-003     516.81  <-- SCF
      8  -3.53108935E+003 -2.18878013E+000  -3.52638866E-003     578.01  <-- SCF
      9  -3.53110095E+003 -2.11347763E+000   5.52214950E-004     640.90  <-- SCF
     10  -3.53110833E+003 -2.02101358E+000   3.51467113E-004     706.30  <-- SCF
     11  -3.53111129E+003 -1.87743910E+000   1.41056848E-004     769.74  <-- SCF
     12  -3.53111565E+003 -1.84210604E+000   2.07541454E-004     832.04  <-- SCF
     13  -3.53112161E+003 -1.81908580E+000   2.83634807E-004     894.86  <-- SCF
     14  -3.53112225E+003 -1.80170747E+000   3.04208725E-005     957.95  <-- SCF
     15  -3.53112086E+003 -1.77507916E+000  -6.60126641E-005    1020.32  <-- SCF
     16  -3.53112093E+003 -1.75911925E+000   3.07559984E-006    1080.76  <-- SCF
     17  -3.53112252E+003 -1.75324859E+000   7.57242533E-005    1141.70  <-- SCF
     18  -3.53112460E+003 -1.75481388E+000   9.91351477E-005    1200.97  <-- SCF
     19  -3.53112575E+003 -1.75385715E+000   5.47203533E-005    1263.62  <-- SCF
     20  -3.53112643E+003 -1.75247962E+000   3.22830929E-005    1327.57  <-- SCF
     21  -3.53112684E+003 -1.75210823E+000   1.97907813E-005    1389.31  <-- SCF
     22  -3.53112708E+003 -1.75215748E+000   1.12188771E-005    1450.88  <-- SCF
     23  -3.53112732E+003 -1.75232453E+000   1.17736631E-005    1514.39  <-- SCF
     24  -3.53112736E+003 -1.75240274E+000   1.84598861E-006    1574.98  <-- SCF
     25  -3.53112731E+003 -1.75233530E+000  -2.51649707E-006    1634.95  <-- SCF
     26  -3.53112731E+003 -1.75233380E+000   1.87025735E-007    1696.39  <-- SCF
     27  -3.53112728E+003 -1.75238754E+000  -1.75847896E-006    1757.02  <-- SCF
     28  -3.53112709E+003 -1.75236256E+000  -9.02723386E-006    1815.77  <-- SCF
     29  -3.53112700E+003 -1.75235759E+000  -4.09456002E-006    1878.14  <-- SCF
     30  -3.53112698E+003 -1.75235185E+000  -9.91142039E-007    1936.54  <-- SCF
     31  -3.53112698E+003 -1.75236153E+000  -7.14891630E-008    1992.77  <-- SCF
     32  -3.53112698E+003 -1.75236600E+000   1.96211853E-007    2047.63  <-- SCF
     33  -3.53112698E+003 -1.75236504E+000   6.70506174E-008    2102.03  <-- SCF
     34  -3.53112699E+003 -1.75236286E+000   1.74431786E-007    2155.70  <-- SCF
     35  -3.53112699E+003 -1.75236193E+000   1.38585779E-007    2211.21  <-- SCF
     36  -3.53112699E+003 -1.75236162E+000   3.71965737E-010    2266.68  <-- SCF
     37  -3.53112699E+003 -1.75236057E+000  -1.74732931E-008    2319.18  <-- SCF
     38  -3.53112699E+003 -1.75236078E+000   1.38098357E-008    2370.09  <-- SCF
     39  -3.53112699E+003 -1.75236180E+000   3.06571951E-008    2420.87  <-- SCF
     40  -3.53112699E+003 -1.75236305E+000   3.75308273E-008    2471.78  <-- SCF
     41  -3.53112699E+003 -1.75236309E+000  -8.14616013E-009    2520.81  <-- SCF
     42  -3.53112699E+003 -1.75236300E+000   3.18211164E-009    2571.36  <-- SCF
     43  -3.53112699E+003 -1.75236298E+000   3.19327061E-009    2621.15  <-- SCF
     44  -3.53112699E+003 -1.75236302E+000   1.98740188E-009    2670.55  <-- SCF
     45  -3.53112699E+003 -1.75236302E+000  -4.36525731E-010    2719.65  <-- SCF
     46  -3.53112699E+003 -1.75236303E+000   3.92957863E-010    2768.71  <-- SCF
     47  -3.53112699E+003 -1.75236304E+000  -7.98326860E-010    2818.76  <-- SCF
     48  -3.53112699E+003 -1.75236306E+000   9.43724952E-010    2867.22  <-- SCF
     49  -3.53112699E+003 -1.75236306E+000  -8.28268260E-010    2916.07  <-- SCF
     50  -3.53112699E+003 -1.75236306E+000  -1.73829533E-010    2964.33  <-- SCF
     51  -3.53112699E+003 -1.75236306E+000   9.43319841E-010    3012.98  <-- SCF
     52  -3.53112699E+003 -1.75236307E+000  -8.10222398E-013    3066.39  <-- SCF
     53  -3.53112699E+003 -1.75236307E+000  -1.32950130E-011    3111.10  <-- SCF
     54  -3.53112699E+003 -1.75236307E+000  -9.57535561E-013    3158.22  <-- SCF
     55  -3.53112699E+003 -1.75236308E+000  -5.70838507E-012    3203.01  <-- SCF
------------------------------------------------------------------------ <-- SCF
 
Final energy, E             =  -3531.124839414     eV
Final free energy (E-TS)    =  -3531.126992267     eV
(energies not corrected for finite basis set)
 
NB est. 0K energy (E-0.5TS)      =  -3531.125915841     eV
 
Calculating total energy with cut-off of  995.000 eV.
------------------------------------------------------------------------ <-- SCF
SCF loop      Energy           Fermi           Energy gain       Timer   <-- SCF
                               energy          per atom          (sec)   <-- SCF
------------------------------------------------------------------------ <-- SCF
Initial  -3.53112484E+003  0.00000000E+000                      3235.27  <-- SCF
      1  -3.53112705E+003 -1.75236400E+000   1.05245997E-004    3278.09  <-- SCF
      2  -3.53112705E+003 -1.75236400E+000   3.52815026E-010    3333.00  <-- SCF
      3  -3.53112705E+003 -1.75236281E+000   1.10820010E-008    3386.02  <-- SCF
      4  -3.53112705E+003 -1.75236459E+000  -2.90354245E-009    3439.03  <-- SCF
      5  -3.53112705E+003 -1.75236315E+000  -2.31675729E-009    3489.07  <-- SCF
      6  -3.53112705E+003 -1.75236326E+000   2.25252875E-009    3537.95  <-- SCF
      7  -3.53112705E+003 -1.75236302E+000  -1.80915296E-009    3586.96  <-- SCF
      8  -3.53112705E+003 -1.75236304E+000  -7.57926225E-011    3638.90  <-- SCF
      9  -3.53112705E+003 -1.75236307E+000  -2.31428979E-010    3688.05  <-- SCF
     10  -3.53112705E+003 -1.75236307E+000   1.00541234E-011    3738.44  <-- SCF
     11  -3.53112705E+003 -1.75236308E+000  -7.66028449E-012    3782.32  <-- SCF
     12  -3.53112705E+003 -1.75236308E+000   4.71402122E-012    3827.12  <-- SCF
------------------------------------------------------------------------ <-- SCF
 
Final energy, E             =  -3531.124896895     eV
Final free energy (E-TS)    =  -3531.127049747     eV
(energies not corrected for finite basis set)
 
NB est. 0K energy (E-0.5TS)      =  -3531.125973321     eV
 
Calculating total energy with cut-off of 1000.000 eV.
------------------------------------------------------------------------ <-- SCF
SCF loop      Energy           Fermi           Energy gain       Timer   <-- SCF
                               energy          per atom          (sec)   <-- SCF
------------------------------------------------------------------------ <-- SCF
Initial  -3.53112490E+003  0.00000000E+000                      3859.34  <-- SCF
      1  -3.53112710E+003 -1.75236396E+000   1.05121838E-004    3901.95  <-- SCF
      2  -3.53112710E+003 -1.75236396E+000   3.16281361E-010    3954.59  <-- SCF
      3  -3.53112710E+003 -1.75236274E+000   6.04444323E-009    4007.52  <-- SCF
      4  -3.53112710E+003 -1.75236452E+000  -2.52067554E-009    4060.28  <-- SCF
      5  -3.53112710E+003 -1.75236313E+000  -2.66647874E-009    4109.39  <-- SCF
      6  -3.53112710E+003 -1.75236321E+000   2.62740392E-009    4157.29  <-- SCF
      7  -3.53112710E+003 -1.75236298E+000  -2.05512911E-009    4205.37  <-- SCF
      8  -3.53112710E+003 -1.75236299E+000  -7.19146034E-010    4254.36  <-- SCF
      9  -3.53112710E+003 -1.75236302E+000  -1.52469124E-011    4307.15  <-- SCF
     10  -3.53112710E+003 -1.75236302E+000   1.62044480E-012    4352.55  <-- SCF
     11  -3.53112710E+003 -1.75236302E+000  -3.39299043E-010    4400.78  <-- SCF
     12  -3.53112710E+003 -1.75236301E+000  -5.15596071E-012    4449.40  <-- SCF
     13  -3.53112710E+003 -1.75236301E+000   7.18151671E-012    4492.22  <-- SCF
     14  -3.53112710E+003 -1.75236301E+000  -1.70146703E-011    4534.83  <-- SCF
     15  -3.53112710E+003 -1.75236300E+000   2.76212181E-012    4577.39  <-- SCF
     16  -3.53112710E+003 -1.75236299E+000   5.08230413E-012    4622.49  <-- SCF
     17  -3.53112710E+003 -1.75236299E+000  -6.51124181E-011    4670.42  <-- SCF
     18  -3.53112710E+003 -1.75236298E+000   7.21834500E-012    4713.40  <-- SCF
     19  -3.53112710E+003 -1.75236298E+000   3.57234421E-012    4755.91  <-- SCF
     20  -3.53112710E+003 -1.75236298E+000  -7.36565816E-013    4798.61  <-- SCF
------------------------------------------------------------------------ <-- SCF
 
Final energy, E             =  -3531.124951607     eV
Final free energy (E-TS)    =  -3531.127104459     eV
(energies not corrected for finite basis set)
 
NB est. 0K energy (E-0.5TS)      =  -3531.126028033     eV
 
 For future reference: finite basis dEtot/dlog(Ecut) =      -0.011052eV
 Total energy corrected for finite basis set =   -3531.127103 eV
 
+---------------- MEMORY AND SCRATCH DISK ESTIMATES PER PROCESS --------------+
|                                                     Memory          Disk    |
| Model and support data                             1770.3 MB         0.0 MB |
| Electronic energy minimisation requirements         622.6 MB         0.0 MB |
| Geometry minimisation requirements                  712.2 MB         0.0 MB |
|                                               ----------------------------- |
| Approx. total storage required per process         3105.1 MB         0.0 MB |
|                                                                             |
| Requirements will fluctuate during execution and may exceed these estimates |
+-----------------------------------------------------------------------------+
 

 ************************************** Forces **************************************
 *                                                                                  *
 *                           Cartesian components (eV/A)                            *
 * -------------------------------------------------------------------------------- *
 *                         x                    y                    z              *
 *                                                                                  *
 * Be              1      0.00022             -0.02340              0.00096         *
 * C               1      0.00700              0.19681              0.01477         *
 * C               2     -0.16711             -0.07321              0.00893         *
 * C               3      0.01630              0.07202              0.00031         *
 * C               4      0.13135             -0.01065              0.01011         *
 * C               5      0.05111              0.03832              0.00973         *
 * C               6     -0.02624             -0.20590             -0.01976         *
 * C               7      0.17032              0.07014             -0.01893         *
 * C               8     -0.02336             -0.07539             -0.00304         *
 * C               9     -0.12717             -0.00395             -0.00128         *
 * C              10     -0.03286             -0.03363              0.01174         *
 * C              11     -0.02370             -0.08029              0.00882         *
 * C              12     -0.06480              0.04998              0.00821         *
 * C              13     -0.11394              0.03729              0.00336         *
 * C              14      0.12515              0.07528             -0.02847         *
 * C              15      0.01082             -0.01372             -0.03063         *
 * C              16      0.04821              0.09612             -0.00137         *
 * C              17      0.06930             -0.03971             -0.00104         *
 * C              18      0.09873             -0.03198             -0.00368         *
 * C              19     -0.11986             -0.06872              0.01420         *
 * C              20     -0.02946              0.02461              0.01705         *
 *                                                                                  *
 ************************************************************************************

 ***************** Stress Tensor *****************
 *                                               *
 *          Cartesian components (GPa)           *
 * --------------------------------------------- *
 *             x             y             z     *
 *                                               *
 *  x      0.452015     -0.052771     -0.085402  *
 *  y     -0.052771      0.197424      0.006799  *
 *  z     -0.085402      0.006799     -1.351233  *
 *                                               *
 *  Pressure:    0.2339                          *
 *                                               *
 *************************************************

 *********** Constrained Stress Tensor ***********
 *                                               *
 *          Cartesian components (GPa)           *
 * --------------------------------------------- *
 *             x             y             z     *
 *                                               *
 *  x      0.000001      0.000000      0.001222  *
 *  y      0.000000     -0.000000     -0.000227  *
 *  z      0.001222     -0.000227     -1.351155  *
 *                                               *
 *  Pressure:    0.4504                          *
 *                                               *
 *************************************************
 EXP precond LBFGS => estimated nearest neighbor distance :  3.459       A
 EXP precond LBFGS => estimated cutoff distance :  6.918       A

 ************************************** Forces **************************************
 *                                                                                  *
 *                           Cartesian components (eV/A)                            *
 * -------------------------------------------------------------------------------- *
 *                         x                    y                    z              *
 *                                                                                  *
 * Be              1      0.00022             -0.02340              0.00096         *
 * C               1      0.00700              0.19681              0.01477         *
 * C               2     -0.16711             -0.07321              0.00893         *
 * C               3      0.01630              0.07202              0.00031         *
 * C               4      0.13135             -0.01065              0.01011         *
 * C               5      0.05111              0.03832              0.00973         *
 * C               6     -0.02624             -0.20590             -0.01976         *
 * C               7      0.17032              0.07014             -0.01893         *
 * C               8     -0.02336             -0.07539             -0.00304         *
 * C               9     -0.12717             -0.00395             -0.00128         *
 * C              10     -0.03286             -0.03363              0.01174         *
 * C              11     -0.02370             -0.08029              0.00882         *
 * C              12     -0.06480              0.04998              0.00821         *
 * C              13     -0.11394              0.03729              0.00336         *
 * C              14      0.12515              0.07528             -0.02847         *
 * C              15      0.01082             -0.01372             -0.03063         *
 * C              16      0.04821              0.09612             -0.00137         *
 * C              17      0.06930             -0.03971             -0.00104         *
 * C              18      0.09873             -0.03198             -0.00368         *
 * C              19     -0.11986             -0.06872              0.01420         *
 * C              20     -0.02946              0.02461              0.01705         *
 *                                                                                  *
 ************************************************************************************

 ***************** Stress Tensor *****************
 *                                               *
 *          Cartesian components (GPa)           *
 * --------------------------------------------- *
 *             x             y             z     *
 *                                               *
 *  x      0.452015     -0.052771     -0.085402  *
 *  y     -0.052771      0.197424      0.006799  *
 *  z     -0.085402      0.006799     -1.351233  *
 *                                               *
 *  Pressure:    0.2339                          *
 *                                               *
 *************************************************
 doing test perturbation to get energy scale for EXP preconditioner

                           -------------------------------
                                      Unit Cell
                           -------------------------------
        Real Lattice(A)              Reciprocal Lattice(1/A)
    19.1230500    -0.7864580    -0.0047370        0.327993637  -0.013922938   0.000679655
     0.7854600    18.5034760    -0.0046120        0.013940789   0.338976058  -0.000004143
    -0.0050600     0.0002380     2.4467730        0.000661279   0.000611992   2.567949094

                       Lattice parameters(A)       Cell Angles
                    a =     19.139216          alpha =   90.013725
                    b =     18.520140          beta  =   90.132799
                    c =      2.446778          gamma =   89.924318

                Current cell volume =           867.284252 A**3
                            density =             0.287364 amu/A**3
                                    =             0.477179 g/cm^3

                           -------------------------------
                                     Cell Contents
                           -------------------------------

            xxxxxxxxxxxxxxxxxxxxxxxxxxxxxxxxxxxxxxxxxxxxxxxxxxxxxxxxxxxxxxxxx
            x  Element         Atom        Fractional coordinates of atoms  x
            x                 Number           u          v          w      x
            x---------------------------------------------------------------x
            x  Be                1         0.459288   0.542379   0.388510   x
            x  C                 1         0.639311   0.518732   0.512994   x
            x  C                 2         0.591926   0.414218   0.000800   x
            x  C                 3         0.493150   0.359189   0.512445   x
            x  C                 4         0.381438   0.373274   0.000328   x
            x  C                 5         0.299173   0.452344   0.512216   x
            x  C                 6         0.278069   0.566238   0.000535   x
            x  C                 7         0.325700   0.670553   0.512832   x
            x  C                 8         0.424619   0.725485   0.001150   x
            x  C                 9         0.536266   0.711329   0.513202   x
            x  C                10         0.618292   0.632594   0.001106   x
            x  C                11         0.630761   0.480651   0.000937   x
            x  C                12         0.562878   0.388700   0.512478   x
            x  C                13         0.455181   0.356002   0.000188   x
            x  C                14         0.348559   0.393348   0.512250   x
            x  C                15         0.284443   0.488703   0.000408   x
            x  C                16         0.286700   0.604240   0.512554   x
            x  C                17         0.354769   0.696074   0.001088   x
            x  C                18         0.462616   0.728514   0.513386   x
            x  C                19         0.569101   0.691405   0.001362   x
            x  C                20         0.632936   0.596267   0.513067   x
            xxxxxxxxxxxxxxxxxxxxxxxxxxxxxxxxxxxxxxxxxxxxxxxxxxxxxxxxxxxxxxxxx


------------------------------------------------------------------------ <-- SCF
SCF loop      Energy           Fermi           Energy gain       Timer   <-- SCF
                               energy          per atom          (sec)   <-- SCF
------------------------------------------------------------------------ <-- SCF
Initial  -3.51148648E+003  0.00000000E+000                      5557.09  <-- SCF
      1  -3.55323502E+003 -1.98351127E+000   1.98802573E+000    5608.76  <-- SCF
      2  -3.55374826E+003 -1.99325654E+000   2.44398208E-002    5683.60  <-- SCF
      3  -3.53541854E+003 -1.81848536E+000  -8.72843680E-001    5755.04  <-- SCF
      4  -3.53194582E+003 -1.79427040E+000  -1.65367675E-001    5822.95  <-- SCF
      5  -3.53155058E+003 -1.60549426E+000  -1.88208846E-002    5891.39  <-- SCF
      6  -3.53141310E+003 -1.70908119E+000  -6.54658265E-003    5957.44  <-- SCF
      7  -3.53126780E+003 -1.66182701E+000  -6.91919644E-003    6021.71  <-- SCF
      8  -3.53110747E+003 -1.69387208E+000  -7.63504746E-003    6088.00  <-- SCF
      9  -3.53098599E+003 -1.66372455E+000  -5.78462734E-003    6153.96  <-- SCF
     10  -3.53096309E+003 -1.70754705E+000  -1.09048039E-003    6221.15  <-- SCF
     11  -3.53095957E+003 -1.71374849E+000  -1.67755540E-004    6287.47  <-- SCF
     12  -3.53095281E+003 -1.72757857E+000  -3.21788271E-004    6351.14  <-- SCF
     13  -3.53094311E+003 -1.72898748E+000  -4.61784180E-004    6415.59  <-- SCF
     14  -3.53094169E+003 -1.73945556E+000  -6.75011148E-005    6478.06  <-- SCF
     15  -3.53094407E+003 -1.74595896E+000   1.13241009E-004    6540.37  <-- SCF
     16  -3.53094563E+003 -1.74825661E+000   7.42977889E-005    6604.19  <-- SCF
     17  -3.53094702E+003 -1.74935253E+000   6.60548484E-005    6668.67  <-- SCF
     18  -3.53094835E+003 -1.74979078E+000   6.32144605E-005    6730.90  <-- SCF
     19  -3.53094905E+003 -1.75119047E+000   3.33845562E-005    6792.02  <-- SCF
     20  -3.53094924E+003 -1.75154918E+000   9.37164364E-006    6854.17  <-- SCF
     21  -3.53094931E+003 -1.75191000E+000   3.31198587E-006    6915.14  <-- SCF
     22  -3.53094921E+003 -1.75260678E+000  -4.76209573E-006    6975.44  <-- SCF
     23  -3.53094921E+003 -1.75304941E+000  -8.09301690E-010    7038.25  <-- SCF
     24  -3.53094929E+003 -1.75341614E+000   3.84676786E-006    7099.01  <-- SCF
     25  -3.53094937E+003 -1.75408814E+000   3.63944524E-006    7161.39  <-- SCF
     26  -3.53094941E+003 -1.75494448E+000   1.78556503E-006    7220.92  <-- SCF
     27  -3.53094948E+003 -1.75560796E+000   3.31989909E-006    7283.24  <-- SCF
     28  -3.53094956E+003 -1.75610801E+000   3.99498420E-006    7344.60  <-- SCF
     29  -3.53094959E+003 -1.75633428E+000   1.51325318E-006    7406.24  <-- SCF
     30  -3.53094958E+003 -1.75643329E+000  -4.26792161E-007    7464.72  <-- SCF
     31  -3.53094958E+003 -1.75649557E+000  -1.56104408E-007    7523.67  <-- SCF
     32  -3.53094957E+003 -1.75655394E+000  -5.76103885E-007    7581.35  <-- SCF
     33  -3.53094956E+003 -1.75659993E+000  -5.57887323E-007    7640.34  <-- SCF
     34  -3.53094955E+003 -1.75662054E+000  -1.21881718E-007    7697.59  <-- SCF
     35  -3.53094956E+003 -1.75663897E+000   9.17804464E-008    7752.97  <-- SCF
     36  -3.53094956E+003 -1.75665865E+000   9.35754205E-008    7808.64  <-- SCF
     37  -3.53094956E+003 -1.75667695E+000   1.95547212E-007    7862.54  <-- SCF
     38  -3.53094957E+003 -1.75668781E+000   1.27943729E-007    7917.60  <-- SCF
     39  -3.53094957E+003 -1.75669549E+000   1.07514302E-008    7970.38  <-- SCF
     40  -3.53094957E+003 -1.75669816E+000  -2.76932174E-008    8024.71  <-- SCF
     41  -3.53094957E+003 -1.75669898E+000   1.76909114E-008    8078.36  <-- SCF
     42  -3.53094957E+003 -1.75669955E+000  -2.33540714E-008    8132.51  <-- SCF
     43  -3.53094956E+003 -1.75669924E+000  -2.01869120E-008    8183.86  <-- SCF
     44  -3.53094956E+003 -1.75669922E+000   7.07103183E-012    8235.58  <-- SCF
     45  -3.53094956E+003 -1.75669917E+000  -7.53819870E-009    8286.26  <-- SCF
     46  -3.53094956E+003 -1.75669905E+000  -1.41036518E-008    8335.71  <-- SCF
     47  -3.53094956E+003 -1.75669889E+000  -3.25094371E-009    8386.18  <-- SCF
     48  -3.53094956E+003 -1.75669893E+000  -3.75387085E-009    8435.73  <-- SCF
     49  -3.53094956E+003 -1.75669892E+000  -1.80959490E-009    8485.42  <-- SCF
     50  -3.53094956E+003 -1.75669891E+000  -3.25193808E-011    8536.83  <-- SCF
     51  -3.53094956E+003 -1.75669890E+000  -1.74039454E-009    8586.12  <-- SCF
     52  -3.53094956E+003 -1.75669890E+000  -4.99686250E-010    8635.79  <-- SCF
     53  -3.53094956E+003 -1.75669889E+000   2.34272123E-009    8684.54  <-- SCF
     54  -3.53094956E+003 -1.75669889E+000   1.39947505E-011    8739.48  <-- SCF
     55  -3.53094956E+003 -1.75669888E+000   5.78093681E-010    8787.60  <-- SCF
     56  -3.53094956E+003 -1.75669888E+000  -2.20454149E-010    8836.20  <-- SCF
     57  -3.53094956E+003 -1.75669887E+000  -7.18151671E-012    8884.19  <-- SCF
     58  -3.53094956E+003 -1.75669887E+000   5.34010217E-012    8927.26  <-- SCF
------------------------------------------------------------------------ <-- SCF
 
Final energy, E             =  -3530.947406478     eV
Final free energy (E-TS)    =  -3530.949564126     eV
(energies not corrected for finite basis set)
 
NB est. 0K energy (E-0.5TS)      =  -3530.948485302     eV
 

 ************************************** Forces **************************************
 *                                                                                  *
 *                           Cartesian components (eV/A)                            *
 * -------------------------------------------------------------------------------- *
 *                         x                    y                    z              *
 *                                                                                  *
 * Be              1     -0.00113              0.01093             -0.00971         *
 * C               1      0.00921              0.23163             -1.19033         *
 * C               2     -0.11467             -0.01109              1.18855         *
 * C               3      0.03874              0.08375             -1.18022         *
 * C               4      0.18108             -0.01046              1.18619         *
 * C               5      0.11787             -0.03873             -1.16875         *
 * C               6     -0.03349             -0.28096              1.19090         *
 * C               7      0.15246              0.04003             -1.19559         *
 * C               8     -0.09996             -0.09683              1.17701         *
 * C               9     -0.20599              0.04445             -1.18745         *
 * C              10     -0.03041             -0.01805              1.19839         *
 * C              11     -0.05568             -0.13712              1.21483         *
 * C              12     -0.10766              0.02694             -1.16988         *
 * C              13     -0.20287              0.05739              1.18490         *
 * C              14      0.08176              0.14691             -1.20367         *
 * C              15      0.02281              0.00011              1.14975         *
 * C              16      0.07472              0.14210             -1.21062         *
 * C              17      0.14771             -0.00443              1.17611         *
 * C              18      0.11160             -0.03850             -1.18310         *
 * C              19     -0.08471             -0.08252              1.20132         *
 * C              20     -0.00139             -0.06555             -1.16863         *
 *                                                                                  *
 ************************************************************************************

 ***************** Stress Tensor *****************
 *                                               *
 *          Cartesian components (GPa)           *
 * --------------------------------------------- *
 *             x             y             z     *
 *                                               *
 *  x      0.512147     -0.053298     -0.088107  *
 *  y     -0.053298      0.238070      0.009959  *
 *  z     -0.088107      0.009959     -1.451809  *
 *                                               *
 *  Pressure:    0.2339                          *
 *                                               *
 *************************************************
 EXP precond LBFGS => estimated parameter mu :  2.989       eV/A**2
 LBFGS: finished iteration     0 with enthalpy= -3.53112710E+003 eV
  
 +-----------+-----------------+-----------------+------------+-----+ <-- LBFGS
 | Parameter |      value      |    tolerance    |    units   | OK? | <-- LBFGS
 +-----------+-----------------+-----------------+------------+-----+ <-- LBFGS
 |  dE/ion   |   0.000000E+000 |   2.000000E-005 |         eV | No  | <-- LBFGS
 |  |F|max   |   1.224055E+000 |   1.000000E-003 |       eV/A | No  | <-- LBFGS
 |  |dR|max  |   7.523732E-015 |   1.000000E-003 |          A | No  | <-- LBFGS
 |   Smax    |   1.451809E+000 |   1.000000E-001 |        GPa | No  | <-- LBFGS
 +-----------+-----------------+-----------------+------------+-----+ <-- LBFGS
  

================================================================================
 Starting LBFGS iteration          1 ...
================================================================================
  
 +------------+-------------+-------------+-----------------+ <-- min LBFGS
 |    Step    |   lambda    |   F.delta'  |    enthalpy     | <-- min LBFGS
 +------------+-------------+-------------+-----------------+ <-- min LBFGS
 |  previous  |    0.000000 |    0.307659 |    -3531.127103 | <-- min LBFGS
 +------------+-------------+-------------+-----------------+ <-- min LBFGS
  

--------------------------------------------------------------------------------
 LBFGS: starting iteration         1 with trial guess (lambda=  1.000000)
--------------------------------------------------------------------------------
 
+---------------- MEMORY AND SCRATCH DISK ESTIMATES PER PROCESS --------------+
|                                                     Memory          Disk    |
| Model and support data                             1770.5 MB         0.0 MB |
| Electronic energy minimisation requirements         623.1 MB         0.0 MB |
| Geometry minimisation requirements                  712.7 MB         0.0 MB |
|                                               ----------------------------- |
| Approx. total storage required per process         3106.3 MB         0.0 MB |
|                                                                             |
| Requirements will fluctuate during execution and may exceed these estimates |
+-----------------------------------------------------------------------------+
 

                           -------------------------------
                                      Unit Cell
                           -------------------------------
        Real Lattice(A)              Reciprocal Lattice(1/A)
    19.1230500    -0.7864580    -0.0047570        0.327993638  -0.013922938   0.000679312
     0.7854600    18.5034760    -0.0046140        0.013940789   0.338976058  -0.000004179
    -0.0050620     0.0002384     2.4489770        0.000663370   0.000611604   2.565638044

                       Lattice parameters(A)       Cell Angles
                    a =     19.139216          alpha =   90.013725
                    b =     18.520140          beta  =   90.132799
                    c =      2.448982          gamma =   89.924318

                Current cell volume =           868.065476 A**3
                            density =             0.287105 amu/A**3
                                    =             0.476750 g/cm^3

                           -------------------------------
                                     Cell Contents
                           -------------------------------

            xxxxxxxxxxxxxxxxxxxxxxxxxxxxxxxxxxxxxxxxxxxxxxxxxxxxxxxxxxxxxxxxx
            x  Element         Atom        Fractional coordinates of atoms  x
            x                 Number           u          v          w      x
            x---------------------------------------------------------------x
            x  Be                1         0.457605   0.540445   0.378843   x
            x  C                 1         0.637488   0.517014   0.501442   x
            x  C                 2         0.589954   0.412524   0.001057   x
            x  C                 3         0.491373   0.357769   0.500634   x
            x  C                 4         0.380040   0.371745   0.000313   x
            x  C                 5         0.298018   0.450612   0.500162   x
            x  C                 6         0.276945   0.564155   0.000198   x
            x  C                 7         0.324522   0.668664   0.500671   x
            x  C                 8         0.423017   0.723518   0.001094   x
            x  C                 9         0.534384   0.709383   0.501408   x
            x  C                10         0.616447   0.630610   0.001416   x
            x  C                11         0.628906   0.478814   0.001245   x
            x  C                12         0.560973   0.387169   0.500789   x
            x  C                13         0.453422   0.354561   0.000249   x
            x  C                14         0.347276   0.391806   0.500097   x
            x  C                15         0.283314   0.486838   0.000035   x
            x  C                16         0.285587   0.602341   0.500422   x
            x  C                17         0.353429   0.694116   0.000950   x
            x  C                18         0.460982   0.726579   0.501477   x
            x  C                19         0.567196   0.689402   0.001603   x
            x  C                20         0.631102   0.594358   0.501519   x
            xxxxxxxxxxxxxxxxxxxxxxxxxxxxxxxxxxxxxxxxxxxxxxxxxxxxxxxxxxxxxxxxx


------------------------------------------------------------------------ <-- SCF
SCF loop      Energy           Fermi           Energy gain       Timer   <-- SCF
                               energy          per atom          (sec)   <-- SCF
------------------------------------------------------------------------ <-- SCF
Initial  -3.51133407E+003  0.00000000E+000                      9325.20  <-- SCF
      1  -3.55273321E+003 -2.79290904E+000   1.97138765E+000    9376.53  <-- SCF
      2  -3.55322846E+003 -2.80177921E+000   2.35835108E-002    9452.14  <-- SCF
      3  -3.53526553E+003 -2.48202596E+000  -8.55377864E-001    9522.38  <-- SCF
      4  -3.53229348E+003 -2.37135952E+000  -1.41525938E-001    9590.34  <-- SCF
      5  -3.53182751E+003 -2.23778306E+000  -2.21891455E-002    9658.92  <-- SCF
      6  -3.53164694E+003 -2.21058898E+000  -8.59866244E-003    9724.94  <-- SCF
      7  -3.53145295E+003 -2.08438169E+000  -9.23733275E-003    9791.42  <-- SCF
      8  -3.53127960E+003 -2.01939338E+000  -8.25486013E-003    9855.82  <-- SCF
      9  -3.53116622E+003 -1.87110638E+000  -5.39932900E-003    9922.77  <-- SCF
     10  -3.53113937E+003 -1.85929768E+000  -1.27834634E-003    9989.77  <-- SCF
     11  -3.53114062E+003 -1.83677735E+000   5.95095027E-005   10054.94  <-- SCF
     12  -3.53113793E+003 -1.82028450E+000  -1.28211920E-004   10120.41  <-- SCF
     13  -3.53113271E+003 -1.80851861E+000  -2.48332115E-004   10183.11  <-- SCF
     14  -3.53113116E+003 -1.79328357E+000  -7.38940275E-005   10246.88  <-- SCF
     15  -3.53113203E+003 -1.78253152E+000   4.14928964E-005   10309.64  <-- SCF
     16  -3.53113201E+003 -1.76954528E+000  -9.30560532E-007   10373.45  <-- SCF
     17  -3.53113394E+003 -1.76518919E+000   9.17456099E-005   10439.21  <-- SCF
     18  -3.53113543E+003 -1.76216670E+000   7.07031595E-005   10500.97  <-- SCF
     19  -3.53113605E+003 -1.76197358E+000   2.95436054E-005   10563.39  <-- SCF
     20  -3.53113648E+003 -1.76044490E+000   2.04667507E-005   10625.68  <-- SCF
     21  -3.53113712E+003 -1.75982327E+000   3.06093393E-005   10686.86  <-- SCF
     22  -3.53113790E+003 -1.75949404E+000   3.72114637E-005   10748.51  <-- SCF
     23  -3.53113826E+003 -1.75916961E+000   1.73414187E-005   10812.73  <-- SCF
     24  -3.53113857E+003 -1.75887145E+000   1.46275795E-005   10876.92  <-- SCF
     25  -3.53113889E+003 -1.75828390E+000   1.50622865E-005   10938.67  <-- SCF
     26  -3.53113908E+003 -1.75748568E+000   9.23534707E-006   11001.64  <-- SCF
     27  -3.53113910E+003 -1.75670680E+000   9.47269049E-007   11063.07  <-- SCF
     28  -3.53113908E+003 -1.75619236E+000  -1.25071222E-006   11128.26  <-- SCF
     29  -3.53113897E+003 -1.75573028E+000  -5.18218463E-006   11188.24  <-- SCF
     30  -3.53113886E+003 -1.75547815E+000  -5.10765739E-006   11248.02  <-- SCF
     31  -3.53113874E+003 -1.75519693E+000  -5.87446759E-006   11308.29  <-- SCF
     32  -3.53113860E+003 -1.75495013E+000  -6.47015639E-006   11369.83  <-- SCF
     33  -3.53113846E+003 -1.75480953E+000  -6.48909869E-006   11431.22  <-- SCF
     34  -3.53113840E+003 -1.75474451E+000  -2.93416561E-006   11494.22  <-- SCF
     35  -3.53113838E+003 -1.75471349E+000  -1.09460980E-006   11549.73  <-- SCF
     36  -3.53113837E+003 -1.75470123E+000  -4.25578116E-007   11606.20  <-- SCF
     37  -3.53113836E+003 -1.75468839E+000  -4.26785016E-007   11660.64  <-- SCF
     38  -3.53113836E+003 -1.75468718E+000  -1.07337269E-007   11716.93  <-- SCF
     39  -3.53113836E+003 -1.75467886E+000  -1.49209599E-007   11770.10  <-- SCF
     40  -3.53113836E+003 -1.75467695E+000   3.25630591E-008   11824.20  <-- SCF
     41  -3.53113836E+003 -1.75467406E+000   1.11886447E-007   11878.59  <-- SCF
     42  -3.53113836E+003 -1.75467370E+000   8.87247295E-008   11932.66  <-- SCF
     43  -3.53113836E+003 -1.75467273E+000   7.41202130E-008   11985.97  <-- SCF
     44  -3.53113836E+003 -1.75467247E+000   5.62070428E-008   12039.05  <-- SCF
     45  -3.53113836E+003 -1.75467288E+000   1.49105964E-008   12090.92  <-- SCF
     46  -3.53113836E+003 -1.75467284E+000  -1.55957868E-008   12143.04  <-- SCF
     47  -3.53113836E+003 -1.75467260E+000  -3.43493785E-008   12193.93  <-- SCF
     48  -3.53113836E+003 -1.75467260E+000  -4.26607872E-009   12245.05  <-- SCF
     49  -3.53113836E+003 -1.75467257E+000   3.41122044E-009   12294.27  <-- SCF
     50  -3.53113836E+003 -1.75467248E+000  -1.42072497E-009   12343.54  <-- SCF
     51  -3.53113836E+003 -1.75467247E+000   4.33579468E-009   12392.70  <-- SCF
     52  -3.53113836E+003 -1.75467249E+000   1.18314567E-009   12442.01  <-- SCF
     53  -3.53113836E+003 -1.75467251E+000   2.47589233E-009   12491.40  <-- SCF
     54  -3.53113836E+003 -1.75467250E+000   2.06238428E-011   12542.15  <-- SCF
     55  -3.53113836E+003 -1.75467248E+000   2.08595439E-010   12591.39  <-- SCF
     56  -3.53113836E+003 -1.75467245E+000  -4.59801211E-010   12641.21  <-- SCF
     57  -3.53113836E+003 -1.75467240E+000  -2.60302359E-010   12690.21  <-- SCF
     58  -3.53113836E+003 -1.75467239E+000  -1.08385660E-010   12739.09  <-- SCF
     59  -3.53113836E+003 -1.75467238E+000  -1.80458625E-012   12790.23  <-- SCF
     60  -3.53113836E+003 -1.75467238E+000  -4.63189413E-010   12838.80  <-- SCF
     61  -3.53113836E+003 -1.75467238E+000  -5.40234198E-010   12888.03  <-- SCF
     62  -3.53113836E+003 -1.75467238E+000   9.24390099E-012   12937.05  <-- SCF
     63  -3.53113836E+003 -1.75467238E+000   2.35701061E-012   12980.41  <-- SCF
     64  -3.53113836E+003 -1.75467238E+000   1.32581847E-012   13023.13  <-- SCF
------------------------------------------------------------------------ <-- SCF
 
Final energy, E             =  -3531.136210186     eV
Final free energy (E-TS)    =  -3531.138362566     eV
(energies not corrected for finite basis set)
 
NB est. 0K energy (E-0.5TS)      =  -3531.137286376     eV
 

 ************************************** Forces **************************************
 *                                                                                  *
 *                           Cartesian components (eV/A)                            *
 * -------------------------------------------------------------------------------- *
 *                         x                    y                    z              *
 *                                                                                  *
 * Be              1     -0.00129             -0.02219              0.00290         *
 * C               1     -0.02196              0.00862              0.01026         *
 * C               2     -0.07061              0.01072              0.00585         *
 * C               3     -0.04359              0.03815             -0.00023         *
 * C               4      0.02695              0.02650             -0.01114         *
 * C               5      0.05636             -0.00039             -0.01360         *
 * C               6      0.01012             -0.00027             -0.01004         *
 * C               7      0.07841             -0.00875             -0.00661         *
 * C               8      0.03982             -0.03851             -0.00019         *
 * C               9     -0.03216             -0.03451              0.00894         *
 * C              10     -0.04393              0.00916              0.01414         *
 * C              11     -0.00908              0.01064              0.01159         *
 * C              12     -0.07280              0.02137              0.00949         *
 * C              13      0.01336              0.00988              0.00510         *
 * C              14      0.09792              0.06354             -0.00346         *
 * C              15      0.00877             -0.03622             -0.00853         *
 * C              16      0.02155             -0.01286             -0.01259         *
 * C              17      0.07090             -0.01457             -0.01113         *
 * C              18     -0.01562             -0.00818             -0.00577         *
 * C              19     -0.09205             -0.05862              0.00258         *
 * C              20     -0.02106              0.03648              0.01243         *
 *                                                                                  *
 ************************************************************************************

 ***************** Stress Tensor *****************
 *                                               *
 *          Cartesian components (GPa)           *
 * --------------------------------------------- *
 *             x             y             z     *
 *                                               *
 *  x      0.328430     -0.030052     -0.074016  *
 *  y     -0.030052      0.168927      0.005106  *
 *  z     -0.074016      0.005106     -1.171506  *
 *                                               *
 *  Pressure:    0.2247                          *
 *                                               *
 *************************************************

 *********** Constrained Stress Tensor ***********
 *                                               *
 *          Cartesian components (GPa)           *
 * --------------------------------------------- *
 *             x             y             z     *
 *                                               *
 *  x      0.000000      0.000000      0.000000  *
 *  y      0.000000     -0.000000     -0.000000  *
 *  z      0.000000     -0.000000     -0.000013  *
 *                                               *
 *  Pressure:    0.0000                          *
 *                                               *
 *************************************************
  
 +------------+-------------+-------------+-----------------+ <-- min LBFGS
 |    Step    |   lambda    |   F.delta'  |    enthalpy     | <-- min LBFGS
 +------------+-------------+-------------+-----------------+ <-- min LBFGS
 |  previous  |    0.000000 |    0.307659 |    -3531.127103 | <-- min LBFGS
 | trial step |    1.000000 |    0.000143 |    -3531.138362 | <-- min LBFGS
 +------------+-------------+-------------+-----------------+ <-- min LBFGS
  
 LBFGS: finished iteration     1 with enthalpy= -3.53113836E+003 eV
  
 +-----------+-----------------+-----------------+------------+-----+ <-- LBFGS
 | Parameter |      value      |    tolerance    |    units   | OK? | <-- LBFGS
 +-----------+-----------------+-----------------+------------+-----+ <-- LBFGS
 |  dE/ion   |   5.361010E-004 |   2.000000E-005 |         eV | No  | <-- LBFGS
 |  |F|max   |   7.652436E-004 |   1.000000E-003 |       eV/A | Yes | <-- LBFGS
 |  |dR|max  |   4.837057E-003 |   1.000000E-003 |          A | No  | <-- LBFGS
 |   Smax    |   1.315638E-005 |   1.000000E-001 |        GPa | Yes | <-- LBFGS
 +-----------+-----------------+-----------------+------------+-----+ <-- LBFGS
  

================================================================================
 Starting LBFGS iteration          2 ...
================================================================================
  
 +------------+-------------+-------------+-----------------+ <-- min LBFGS
 |    Step    |   lambda    |   F.delta'  |    enthalpy     | <-- min LBFGS
 +------------+-------------+-------------+-----------------+ <-- min LBFGS
 |  previous  |    0.000000 |    0.000220 |    -3531.138362 | <-- min LBFGS
 +------------+-------------+-------------+-----------------+ <-- min LBFGS
  

--------------------------------------------------------------------------------
 LBFGS: starting iteration         2 with trial guess (lambda=  1.000000)
--------------------------------------------------------------------------------

                           -------------------------------
                                      Unit Cell
                           -------------------------------
        Real Lattice(A)              Reciprocal Lattice(1/A)
    19.1230500    -0.7864580    -0.0047570        0.327993638  -0.013922938   0.000679312
     0.7854600    18.5034760    -0.0046140        0.013940789   0.338976058  -0.000004179
    -0.0050620     0.0002384     2.4489770        0.000663370   0.000611604   2.565638022

                       Lattice parameters(A)       Cell Angles
                    a =     19.139216          alpha =   90.013725
                    b =     18.520140          beta  =   90.132799
                    c =      2.448982          gamma =   89.924318

                Current cell volume =           868.065483 A**3
                            density =             0.287105 amu/A**3
                                    =             0.476750 g/cm^3

                           -------------------------------
                                     Cell Contents
                           -------------------------------

            xxxxxxxxxxxxxxxxxxxxxxxxxxxxxxxxxxxxxxxxxxxxxxxxxxxxxxxxxxxxxxxxx
            x  Element         Atom        Fractional coordinates of atoms  x
            x                 Number           u          v          w      x
            x---------------------------------------------------------------x
            x  Be                1         0.457605   0.540445   0.378843   x
            x  C                 1         0.637488   0.517014   0.501460   x
            x  C                 2         0.589954   0.412524   0.001071   x
            x  C                 3         0.491373   0.357769   0.500639   x
            x  C                 4         0.380040   0.371745   0.000306   x
            x  C                 5         0.298018   0.450612   0.500147   x
            x  C                 6         0.276945   0.564155   0.000180   x
            x  C                 7         0.324522   0.668664   0.500657   x
            x  C                 8         0.423017   0.723518   0.001089   x
            x  C                 9         0.534384   0.709383   0.501415   x
            x  C                10         0.616447   0.630610   0.001432   x
            x  C                11         0.628906   0.478814   0.001262   x
            x  C                12         0.560973   0.387169   0.500799   x
            x  C                13         0.453422   0.354561   0.000248   x
            x  C                14         0.347276   0.391806   0.500087   x
            x  C                15         0.283314   0.486838   0.000018   x
            x  C                16         0.285587   0.602341   0.500405   x
            x  C                17         0.353429   0.694116   0.000939   x
            x  C                18         0.460982   0.726579   0.501477   x
            x  C                19         0.567196   0.689402   0.001613   x
            x  C                20         0.631102   0.594358   0.501536   x
            xxxxxxxxxxxxxxxxxxxxxxxxxxxxxxxxxxxxxxxxxxxxxxxxxxxxxxxxxxxxxxxxx


------------------------------------------------------------------------ <-- SCF
SCF loop      Energy           Fermi           Energy gain       Timer   <-- SCF
                               energy          per atom          (sec)   <-- SCF
------------------------------------------------------------------------ <-- SCF
Initial  -3.53113621E+003  0.00000000E+000                     13420.83  <-- SCF
      1  -3.53113837E+003 -1.75467048E+000   1.02711684E-004   13464.85  <-- SCF
      2  -3.53113837E+003 -1.75467048E+000   1.24833174E-009   13536.07  <-- SCF
      3  -3.53113837E+003 -1.75467191E+000  -1.86677082E-008   13592.21  <-- SCF
      4  -3.53113837E+003 -1.75467119E+000   2.99045721E-010   13656.51  <-- SCF
      5  -3.53113837E+003 -1.75467228E+000  -4.31929560E-009   13706.08  <-- SCF
      6  -3.53113837E+003 -1.75467147E+000   5.25502881E-010   13754.64  <-- SCF
      7  -3.53113837E+003 -1.75467199E+000  -2.53260790E-009   13805.05  <-- SCF
      8  -3.53113837E+003 -1.75467182E+000   2.61002097E-010   13854.42  <-- SCF
      9  -3.53113837E+003 -1.75467194E+000  -2.03273751E-009   13903.18  <-- SCF
     10  -3.53113837E+003 -1.75467203E+000  -6.92077241E-010   13951.50  <-- SCF
     11  -3.53113837E+003 -1.75467207E+000  -3.45154741E-010   14002.25  <-- SCF
     12  -3.53113837E+003 -1.75467224E+000  -5.49846382E-011   14050.89  <-- SCF
     13  -3.53113837E+003 -1.75467228E+000   3.30386597E-009   14099.84  <-- SCF
     14  -3.53113837E+003 -1.75467233E+000   2.60099804E-009   14148.21  <-- SCF
     15  -3.53113837E+003 -1.75467236E+000   3.94559893E-009   14196.51  <-- SCF
     16  -3.53113837E+003 -1.75467239E+000   6.44384604E-010   14244.50  <-- SCF
     17  -3.53113837E+003 -1.75467239E+000   7.40248645E-012   14299.57  <-- SCF
     18  -3.53113837E+003 -1.75467239E+000   7.03052071E-011   14347.78  <-- SCF
     19  -3.53113837E+003 -1.75467239E+000   2.48149023E-010   14395.89  <-- SCF
     20  -3.53113837E+003 -1.75467239E+000   8.72830492E-012   14445.66  <-- SCF
     21  -3.53113837E+003 -1.75467239E+000  -8.75776755E-011   14492.94  <-- SCF
     22  -3.53113837E+003 -1.75467239E+000  -7.06734900E-011   14542.84  <-- SCF
     23  -3.53113837E+003 -1.75467239E+000  -5.89252653E-013   14592.86  <-- SCF
     24  -3.53113837E+003 -1.75467239E+000   4.78767780E-013   14638.77  <-- SCF
------------------------------------------------------------------------ <-- SCF
 
Final energy, E             =  -3531.136215349     eV
Final free energy (E-TS)    =  -3531.138367728     eV
(energies not corrected for finite basis set)
 
NB est. 0K energy (E-0.5TS)      =  -3531.137291539     eV
 

 ************************************** Forces **************************************
 *                                                                                  *
 *                           Cartesian components (eV/A)                            *
 * -------------------------------------------------------------------------------- *
 *                         x                    y                    z              *
 *                                                                                  *
 * Be              1     -0.00130             -0.02219              0.00289         *
 * C               1     -0.02196              0.00862              0.01017         *
 * C               2     -0.07061              0.01072              0.00564         *
 * C               3     -0.04359              0.03815             -0.00046         *
 * C               4      0.02695              0.02650             -0.01129         *
 * C               5      0.05636             -0.00039             -0.01363         *
 * C               6      0.01012             -0.00027             -0.00993         *
 * C               7      0.07841             -0.00875             -0.00641         *
 * C               8      0.03982             -0.03851              0.00004         *
 * C               9     -0.03216             -0.03451              0.00910         *
 * C              10     -0.04393              0.00916              0.01416         *
 * C              11     -0.00908              0.01064              0.01156         *
 * C              12     -0.07280              0.02137              0.00961         *
 * C              13      0.01336              0.00988              0.00531         *
 * C              14      0.09792              0.06354             -0.00324         *
 * C              15      0.00877             -0.03622             -0.00838         *
 * C              16      0.02155             -0.01286             -0.01257         *
 * C              17      0.07090             -0.01457             -0.01123         *
 * C              18     -0.01562             -0.00818             -0.00598         *
 * C              19     -0.09205             -0.05862              0.00235         *
 * C              20     -0.02106              0.03648              0.01229         *
 *                                                                                  *
 ************************************************************************************

 ***************** Stress Tensor *****************
 *                                               *
 *          Cartesian components (GPa)           *
 * --------------------------------------------- *
 *             x             y             z     *
 *                                               *
 *  x      0.328430     -0.030052     -0.073448  *
 *  y     -0.030052      0.168928      0.005062  *
 *  z     -0.073448      0.005062     -1.171502  *
 *                                               *
 *  Pressure:    0.2247                          *
 *                                               *
 *************************************************

 *********** Constrained Stress Tensor ***********
 *                                               *
 *          Cartesian components (GPa)           *
 * --------------------------------------------- *
 *             x             y             z     *
 *                                               *
 *  x      0.000000      0.000000      0.000000  *
 *  y      0.000000     -0.000000     -0.000000  *
 *  z      0.000000     -0.000000     -0.000013  *
 *                                               *
 *  Pressure:    0.0000                          *
 *                                               *
 *************************************************
  
 +------------+-------------+-------------+-----------------+ <-- min LBFGS
 |    Step    |   lambda    |   F.delta'  |    enthalpy     | <-- min LBFGS
 +------------+-------------+-------------+-----------------+ <-- min LBFGS
 |  previous  |    0.000000 |    0.000220 |    -3531.138362 | <-- min LBFGS
 | trial step |    1.000000 |    0.000218 |    -3531.138367 | <-- min LBFGS
 +------------+-------------+-------------+-----------------+ <-- min LBFGS
  
 LBFGS: finished iteration     2 with enthalpy= -3.53113837E+003 eV
  
 +-----------+-----------------+-----------------+------------+-----+ <-- LBFGS
 | Parameter |      value      |    tolerance    |    units   | OK? | <-- LBFGS
 +-----------+-----------------+-----------------+------------+-----+ <-- LBFGS
 |  dE/ion   |   2.458242E-007 |   2.000000E-005 |         eV | Yes | <-- LBFGS
 |  |F|max   |   7.593090E-004 |   1.000000E-003 |       eV/A | Yes | <-- LBFGS
 |  |dR|max  |   4.308343E-005 |   1.000000E-003 |          A | Yes | <-- LBFGS
 |   Smax    |   1.315633E-005 |   1.000000E-001 |        GPa | Yes | <-- LBFGS
 +-----------+-----------------+-----------------+------------+-----+ <-- LBFGS
  
 LBFGS: Geometry optimization completed successfully.

================================================================================
 LBFGS: Final Configuration:
================================================================================

                           -------------------------------
                                      Unit Cell
                           -------------------------------
        Real Lattice(A)              Reciprocal Lattice(1/A)
    19.1230500    -0.7864580    -0.0047570        0.327993638  -0.013922938   0.000679312
     0.7854600    18.5034760    -0.0046140        0.013940789   0.338976058  -0.000004179
    -0.0050620     0.0002384     2.4489770        0.000663370   0.000611604   2.565638022

                       Lattice parameters(A)       Cell Angles
                    a =     19.139216          alpha =   90.013725
                    b =     18.520140          beta  =   90.132799
                    c =      2.448982          gamma =   89.924318

                Current cell volume =           868.065483 A**3
                            density =             0.287105 amu/A**3
                                    =             0.476750 g/cm^3

                           -------------------------------
                                     Cell Contents
                           -------------------------------

            xxxxxxxxxxxxxxxxxxxxxxxxxxxxxxxxxxxxxxxxxxxxxxxxxxxxxxxxxxxxxxxxx
            x  Element         Atom        Fractional coordinates of atoms  x
            x                 Number           u          v          w      x
            x---------------------------------------------------------------x
            x  Be                1         0.457605   0.540445   0.378843   x
            x  C                 1         0.637488   0.517014   0.501460   x
            x  C                 2         0.589954   0.412524   0.001071   x
            x  C                 3         0.491373   0.357769   0.500639   x
            x  C                 4         0.380040   0.371745   0.000306   x
            x  C                 5         0.298018   0.450612   0.500147   x
            x  C                 6         0.276945   0.564155   0.000180   x
            x  C                 7         0.324522   0.668664   0.500657   x
            x  C                 8         0.423017   0.723518   0.001089   x
            x  C                 9         0.534384   0.709383   0.501415   x
            x  C                10         0.616447   0.630610   0.001432   x
            x  C                11         0.628906   0.478814   0.001262   x
            x  C                12         0.560973   0.387169   0.500799   x
            x  C                13         0.453422   0.354561   0.000248   x
            x  C                14         0.347276   0.391806   0.500087   x
            x  C                15         0.283314   0.486838   0.000018   x
            x  C                16         0.285587   0.602341   0.500405   x
            x  C                17         0.353429   0.694116   0.000939   x
            x  C                18         0.460982   0.726579   0.501477   x
            x  C                19         0.567196   0.689402   0.001613   x
            x  C                20         0.631102   0.594358   0.501536   x
            xxxxxxxxxxxxxxxxxxxxxxxxxxxxxxxxxxxxxxxxxxxxxxxxxxxxxxxxxxxxxxxxx


 LBFGS: Final Enthalpy     = -3.53113837E+003 eV
 LBFGS: Final <frequency>  unchanged from initial value
 LBFGS: Final bulk modulus unchanged from initial value

 ************************************** Forces **************************************
 *                                                                                  *
 *                           Cartesian components (eV/A)                            *
 * -------------------------------------------------------------------------------- *
 *                         x                    y                    z              *
 *                                                                                  *
 * Be              1     -0.00130             -0.02219              0.00289         *
 * C               1     -0.02196              0.00862              0.01017         *
 * C               2     -0.07061              0.01072              0.00564         *
 * C               3     -0.04359              0.03815             -0.00046         *
 * C               4      0.02695              0.02650             -0.01129         *
 * C               5      0.05636             -0.00039             -0.01363         *
 * C               6      0.01012             -0.00027             -0.00993         *
 * C               7      0.07841             -0.00875             -0.00641         *
 * C               8      0.03982             -0.03851              0.00004         *
 * C               9     -0.03216             -0.03451              0.00910         *
 * C              10     -0.04393              0.00916              0.01416         *
 * C              11     -0.00908              0.01064              0.01156         *
 * C              12     -0.07280              0.02137              0.00961         *
 * C              13      0.01336              0.00988              0.00531         *
 * C              14      0.09792              0.06354             -0.00324         *
 * C              15      0.00877             -0.03622             -0.00838         *
 * C              16      0.02155             -0.01286             -0.01257         *
 * C              17      0.07090             -0.01457             -0.01123         *
 * C              18     -0.01562             -0.00818             -0.00598         *
 * C              19     -0.09205             -0.05862              0.00235         *
 * C              20     -0.02106              0.03648              0.01229         *
 *                                                                                  *
 ************************************************************************************

 Pseudo atomic calculation performed for Be 1s2 2s2

 Converged in 25 iterations to a total energy of -389.3029 eV

 Pseudo atomic calculation performed for C 2s2 2p2

 Converged in 36 iterations to a total energy of -148.5530 eV
Charge spilling parameter for spin component 1 = 0.99%

            Orbital Populations       
     Ion    Atom   Orbital             Charge
  -------------------------------------------
     Be     1      S                    2.000
     Be     1      S                    1.102
     Be     1      Px                  -0.053
     Be     1      Py                  -0.053
     Be     1      Pz                   0.815
      C     1      S                    1.057
      C     1      Px                   1.005
      C     1      Py                   0.974
      C     1      Pz                   0.974
      C     2      S                    1.057
      C     2      Px                   0.986
      C     2      Py                   0.992
      C     2      Pz                   0.974
      C     3      S                    1.058
      C     3      Px                   0.972
      C     3      Py                   1.007
      C     3      Pz                   0.974
      C     4      S                    1.057
      C     4      Px                   0.981
      C     4      Py                   0.996
      C     4      Pz                   0.974
      C     5      S                    1.058
      C     5      Px                   1.002
      C     5      Py                   0.977
      C     5      Pz                   0.974
      C     6      S                    1.056
      C     6      Px                   1.004
      C     6      Py                   0.974
      C     6      Pz                   0.974
      C     7      S                    1.057
      C     7      Px                   0.987
      C     7      Py                   0.992
      C     7      Pz                   0.974
      C     8      S                    1.057
      C     8      Px                   0.972
      C     8      Py                   1.006
      C     8      Pz                   0.974
      C     9      S                    1.058
      C     9      Px                   0.981
      C     9      Py                   0.998
      C     9      Pz                   0.974
      C    10      S                    1.057
      C    10      Px                   1.001
      C    10      Py                   0.976
      C    10      Pz                   0.974
      C    11      S                    1.056
      C    11      Px                   1.003
      C    11      Py                   0.975
      C    11      Pz                   0.975
      C    12      S                    1.057
      C    12      Px                   0.984
      C    12      Py                   0.995
      C    12      Pz                   0.974
      C    13      S                    1.057
      C    13      Px                   0.972
      C    13      Py                   1.006
      C    13      Pz                   0.974
      C    14      S                    1.058
      C    14      Px                   0.984
      C    14      Py                   0.995
      C    14      Pz                   0.974
      C    15      S                    1.056
      C    15      Px                   1.002
      C    15      Py                   0.976
      C    15      Pz                   0.974
      C    16      S                    1.057
      C    16      Px                   1.004
      C    16      Py                   0.975
      C    16      Pz                   0.974
      C    17      S                    1.057
      C    17      Px                   0.984
      C    17      Py                   0.994
      C    17      Pz                   0.974
      C    18      S                    1.058
      C    18      Px                   0.972
      C    18      Py                   1.007
      C    18      Pz                   0.974
      C    19      S                    1.057
      C    19      Px                   0.983
      C    19      Py                   0.994
      C    19      Pz                   0.974
      C    20      S                    1.057
      C    20      Px                   1.003
      C    20      Py                   0.976
      C    20      Pz                   0.974
  -------------------------------------------
                           Total:      83.998
  -------------------------------------------

     Atomic Populations (Mulliken)
     -----------------------------
Species          Ion     s       p       d       f      Total   Charge (e)
==========================================================================
  Be              1     3.102   0.709   0.000   0.000   3.811     0.189
  C               1     1.057   2.954   0.000   0.000   4.010    -0.010
  C               2     1.057   2.952   0.000   0.000   4.008    -0.008
  C               3     1.058   2.953   0.000   0.000   4.011    -0.011
  C               4     1.057   2.951   0.000   0.000   4.008    -0.008
  C               5     1.058   2.953   0.000   0.000   4.010    -0.010
  C               6     1.056   2.952   0.000   0.000   4.008    -0.008
  C               7     1.057   2.953   0.000   0.000   4.010    -0.010
  C               8     1.057   2.952   0.000   0.000   4.009    -0.009
  C               9     1.058   2.953   0.000   0.000   4.010    -0.010
  C              10     1.057   2.952   0.000   0.000   4.009    -0.009
  C              11     1.056   2.952   0.000   0.000   4.008    -0.008
  C              12     1.057   2.953   0.000   0.000   4.010    -0.010
  C              13     1.057   2.952   0.000   0.000   4.009    -0.009
  C              14     1.058   2.952   0.000   0.000   4.010    -0.010
  C              15     1.056   2.952   0.000   0.000   4.008    -0.008
  C              16     1.057   2.953   0.000   0.000   4.010    -0.010
  C              17     1.057   2.951   0.000   0.000   4.008    -0.008
  C              18     1.058   2.953   0.000   0.000   4.011    -0.011
  C              19     1.057   2.951   0.000   0.000   4.008    -0.008
  C              20     1.057   2.953   0.000   0.000   4.010    -0.010
==========================================================================

                 Bond                   Population      Length (A)
======================================================================
              C 2  -- C 12                   2.19        1.42353
              C 7  -- C 17                   2.19        1.42360
              C 1  -- C 11                   2.19        1.42373
              C 6  -- C 16                   2.19        1.42379
              C 10 -- C 20                   2.19        1.42399
              C 5  -- C 15                   2.19        1.42400
              C 9  -- C 19                   2.19        1.42405
              C 4  -- C 14                   2.19        1.42408
              C 3  -- C 13                   2.19        1.42436
              C 8  -- C 18                   2.19        1.42437
              C 6  -- C 15                   0.87        1.43694
              C 2  -- C 11                   0.87        1.43716
              C 1  -- C 20                   0.87        1.43748
              C 7  -- C 16                   0.87        1.43751
              C 10 -- C 19                   0.87        1.43924
              C 5  -- C 14                   0.87        1.43951
              C 8  -- C 17                   0.87        1.43954
              C 4  -- C 13                   0.87        1.43968
              C 3  -- C 12                   0.87        1.43973
              C 9  -- C 18                   0.87        1.44008
======================================================================


Writing analysis data to BeC_tube+wire.castep_bin

Writing model to BeC_tube+wire.check
 
 A BibTeX formatted list of references used in this run has been written to 
 BeC_tube+wire.bib
 
Initialisation time =      9.19 s
Calculation time    =  15047.40 s
Finalisation time   =     19.09 s
Total time          =  15075.67 s
Peak Memory Use     = 2942940 kB
  
Overall parallel efficiency rating: Excellent (95%)                             
  
Data was distributed by:-
k-point (250-way); efficiency rating: Excellent (95%)                           
