------------------------------------------------------------
          Invoking FHI-aims ...

          When using FHI-aims, please cite the following reference:

            Volker Blum, Ralf Gehrke, Felix Hanke, Paula Havu,
            Ville Havu, Xinguo Ren, Karsten Reuter, and Matthias Scheffler,
            'Ab Initio Molecular Simulations with Numeric Atom-Centered Orbitals',
            Computer Physics Communications 180, 2175-2196 (2009)

          In addition, many other developments in FHI-aims are likely important for
          your particular application. A partial list of references is given at the end of
          this file. Thank you for giving credit to the authors of these developments.

          For any questions about FHI-aims, please visit our slack channel at

            https://fhi-aims.slack.com

          and our main development and support site at

            https://aims-git.rz-berlin.mpg.de .

          The latter site, in particular, has a wiki to collect information, as well
          as an issue tracker to log discussions, suggest improvements, and report issues
          or bugs. https://aims-git.rz-berlin.mpg.de is also the main development site
          of the project and all new and updated code versions can be obtained there.
          Please send an email to aims-coordinators@fhi-berlin.mpg.de and we will add
          you to these sites. They are for you and everyone is welcome there.

------------------------------------------------------------



  Date     :  20220323, Time     :  133700.195
  Time zero on CPU 1             :   0.140129100000000E+01  s.
  Internal wall clock time zero  :           417274620.195  s.

  FHI-aims created a unique identifier for this run for later identification
  aims_uuid : B86C5A01-C3B7-4C7C-AB43-A5DD9D73A013

  Build configuration of the current instance of FHI-aims
  -------------------------------------------------------
  FHI-aims version      : 210716.2
  Commit number         : GITDIR-NOTFOUND
  CMake host system     : Linux-4.18.0-305.12.1.el8_4.x86_64
  CMake version         : 3.21.1
  Fortran compiler      : /sulis/institutions/warwick/easybuild/software/OpenMPI/4.1.1-GCC-11.2.0/bin/mpifort (GNU) version 11.2.0
  Fortran compiler flags: -O3 -march=native -mno-recip -I$(EBROOTHDF5)/include -fallow-argument-mismatch -ffree-line-length-none -O3 -DNDEBUG -O3
  C compiler            : /sulis/institutions/warwick/easybuild/software/GCCcore/11.2.0/bin/gcc (GNU) version 11.2.0
  C compiler flags      : -O3 -march=native -mno-recip -std=gnu99 -O3 -DNDEBUG
  ELPA2 kernel          : AVX2
  Using MPI
  Using ScaLAPACK
  Using LibXC
  Using i-PI
  Using HDF5
  Using RLSY
  Using PLUMED
  Linking against: /sulis/institutions/warwick/easybuild/software/PLUMED/2.7.3-foss-2021b/lib/libplumed.so
                   /sulis/institutions/warwick/easybuild/software/HDF5/1.12.1-gompi-2021b/lib/libhdf5_fortran.so
                   /sulis/institutions/warwick/easybuild/software/ScaLAPACK/2.1.0-gompi-2021b-fb/lib/libscalapack.so
                   /sulis/institutions/warwick/easybuild/software/FlexiBLAS/3.0.4-GCC-11.2.0/lib/libflexiblas.so

  Using      128 parallel tasks.
  Task        0 on host node009.sulis.hpc reporting.
  Task        1 on host node009.sulis.hpc reporting.
  Task        2 on host node009.sulis.hpc reporting.
  Task        3 on host node009.sulis.hpc reporting.
  Task        4 on host node009.sulis.hpc reporting.
  Task        5 on host node009.sulis.hpc reporting.
  Task        6 on host node009.sulis.hpc reporting.
  Task        7 on host node009.sulis.hpc reporting.
  Task        8 on host node009.sulis.hpc reporting.
  Task        9 on host node009.sulis.hpc reporting.
  Task       10 on host node009.sulis.hpc reporting.
  Task       11 on host node009.sulis.hpc reporting.
  Task       12 on host node009.sulis.hpc reporting.
  Task       13 on host node009.sulis.hpc reporting.
  Task       14 on host node009.sulis.hpc reporting.
  Task       15 on host node009.sulis.hpc reporting.
  Task       16 on host node009.sulis.hpc reporting.
  Task       17 on host node009.sulis.hpc reporting.
  Task       18 on host node009.sulis.hpc reporting.
  Task       19 on host node009.sulis.hpc reporting.
  Task       20 on host node009.sulis.hpc reporting.
  Task       21 on host node009.sulis.hpc reporting.
  Task       22 on host node009.sulis.hpc reporting.
  Task       23 on host node009.sulis.hpc reporting.
  Task       24 on host node009.sulis.hpc reporting.
  Task       25 on host node009.sulis.hpc reporting.
  Task       26 on host node009.sulis.hpc reporting.
  Task       27 on host node009.sulis.hpc reporting.
  Task       28 on host node009.sulis.hpc reporting.
  Task       29 on host node009.sulis.hpc reporting.
  Task       30 on host node009.sulis.hpc reporting.
  Task       31 on host node009.sulis.hpc reporting.
  Task       32 on host node009.sulis.hpc reporting.
  Task       33 on host node009.sulis.hpc reporting.
  Task       34 on host node009.sulis.hpc reporting.
  Task       35 on host node009.sulis.hpc reporting.
  Task       36 on host node009.sulis.hpc reporting.
  Task       37 on host node009.sulis.hpc reporting.
  Task       38 on host node009.sulis.hpc reporting.
  Task       39 on host node009.sulis.hpc reporting.
  Task       40 on host node009.sulis.hpc reporting.
  Task       41 on host node009.sulis.hpc reporting.
  Task       42 on host node009.sulis.hpc reporting.
  Task       43 on host node009.sulis.hpc reporting.
  Task       44 on host node009.sulis.hpc reporting.
  Task       45 on host node009.sulis.hpc reporting.
  Task       46 on host node009.sulis.hpc reporting.
  Task       47 on host node009.sulis.hpc reporting.
  Task       48 on host node009.sulis.hpc reporting.
  Task       49 on host node009.sulis.hpc reporting.
  Task       50 on host node009.sulis.hpc reporting.
  Task       51 on host node009.sulis.hpc reporting.
  Task       52 on host node009.sulis.hpc reporting.
  Task       53 on host node009.sulis.hpc reporting.
  Task       54 on host node009.sulis.hpc reporting.
  Task       55 on host node009.sulis.hpc reporting.
  Task       56 on host node009.sulis.hpc reporting.
  Task       57 on host node009.sulis.hpc reporting.
  Task       58 on host node009.sulis.hpc reporting.
  Task       59 on host node009.sulis.hpc reporting.
  Task       60 on host node009.sulis.hpc reporting.
  Task       61 on host node009.sulis.hpc reporting.
  Task       62 on host node009.sulis.hpc reporting.
  Task       63 on host node009.sulis.hpc reporting.
  Task       64 on host node009.sulis.hpc reporting.
  Task       65 on host node009.sulis.hpc reporting.
  Task       66 on host node009.sulis.hpc reporting.
  Task       67 on host node009.sulis.hpc reporting.
  Task       68 on host node009.sulis.hpc reporting.
  Task       69 on host node009.sulis.hpc reporting.
  Task       70 on host node009.sulis.hpc reporting.
  Task       71 on host node009.sulis.hpc reporting.
  Task       72 on host node009.sulis.hpc reporting.
  Task       73 on host node009.sulis.hpc reporting.
  Task       74 on host node009.sulis.hpc reporting.
  Task       75 on host node009.sulis.hpc reporting.
  Task       76 on host node009.sulis.hpc reporting.
  Task       77 on host node009.sulis.hpc reporting.
  Task       78 on host node009.sulis.hpc reporting.
  Task       79 on host node009.sulis.hpc reporting.
  Task       80 on host node009.sulis.hpc reporting.
  Task       81 on host node009.sulis.hpc reporting.
  Task       82 on host node009.sulis.hpc reporting.
  Task       83 on host node009.sulis.hpc reporting.
  Task       84 on host node009.sulis.hpc reporting.
  Task       85 on host node009.sulis.hpc reporting.
  Task       86 on host node009.sulis.hpc reporting.
  Task       87 on host node009.sulis.hpc reporting.
  Task       88 on host node009.sulis.hpc reporting.
  Task       89 on host node009.sulis.hpc reporting.
  Task       90 on host node009.sulis.hpc reporting.
  Task       91 on host node009.sulis.hpc reporting.
  Task       92 on host node009.sulis.hpc reporting.
  Task       93 on host node009.sulis.hpc reporting.
  Task       94 on host node009.sulis.hpc reporting.
  Task       95 on host node009.sulis.hpc reporting.
  Task       96 on host node009.sulis.hpc reporting.
  Task       97 on host node009.sulis.hpc reporting.
  Task       98 on host node009.sulis.hpc reporting.
  Task       99 on host node009.sulis.hpc reporting.
  Task      100 on host node009.sulis.hpc reporting.
  Task      101 on host node009.sulis.hpc reporting.
  Task      102 on host node009.sulis.hpc reporting.
  Task      103 on host node009.sulis.hpc reporting.
  Task      104 on host node009.sulis.hpc reporting.
  Task      105 on host node009.sulis.hpc reporting.
  Task      106 on host node009.sulis.hpc reporting.
  Task      107 on host node009.sulis.hpc reporting.
  Task      108 on host node009.sulis.hpc reporting.
  Task      109 on host node009.sulis.hpc reporting.
  Task      110 on host node009.sulis.hpc reporting.
  Task      111 on host node009.sulis.hpc reporting.
  Task      112 on host node009.sulis.hpc reporting.
  Task      113 on host node009.sulis.hpc reporting.
  Task      114 on host node009.sulis.hpc reporting.
  Task      115 on host node009.sulis.hpc reporting.
  Task      116 on host node009.sulis.hpc reporting.
  Task      117 on host node009.sulis.hpc reporting.
  Task      118 on host node009.sulis.hpc reporting.
  Task      119 on host node009.sulis.hpc reporting.
  Task      120 on host node009.sulis.hpc reporting.
  Task      121 on host node009.sulis.hpc reporting.
  Task      122 on host node009.sulis.hpc reporting.
  Task      123 on host node009.sulis.hpc reporting.
  Task      124 on host node009.sulis.hpc reporting.
  Task      125 on host node009.sulis.hpc reporting.
  Task      126 on host node009.sulis.hpc reporting.
  Task      127 on host node009.sulis.hpc reporting.

  Performing system and environment tests:
  | Environment variable OMP_NUM_THREADS correctly set to 1.
  | Checking for ScaLAPACK...
  | Testing pdtran()...
  | All pdtran() tests passed.

  Obtaining array dimensions for all initial allocations:
  
  -----------------------------------------------------------------------
  Parsing control.in (first pass over file, find array dimensions only).
  The contents of control.in will be repeated verbatim below
  unless switched off by setting 'verbatim_writeout .false.' .
  in the first line of control.in .
  -----------------------------------------------------------------------
  
  #===============================================================================
  # FHI-aims file: ./control.in
  # Created using the Atomic Simulation Environment (ASE)
  # Wed Mar 23 11:16:11 2022
  #===============================================================================
  xc                                 blyp
  k_grid                             1 1 500
  occupation_type                    gaussian 0.68
  spin                               none
  default_initial_moment             0
  KS_method                          parallel
  RI_method                          LVL_fast
  preconditioner                     kerker 2.0
  sc_accuracy_rho                    1e-06
  sc_accuracy_forces                 0.0001
  output band                        0.0 0.0 0.0  0.0 0.0 0.5  101  Gamma Z
  output dos_tetrahedron             -25.0 10.0 7001
  exx_band_structure_version         1
  #===============================================================================
  
  ################################################################################
  #
  #  FHI-aims code project
  #  Volker Blum, Fritz Haber Institute Berlin, 2009
  #
  #  Suggested "tight" defaults for Be atom (to be pasted into control.in file)
  #
  ################################################################################
    species        Be
  #     global species definitions
      nucleus             4
      mass                9.012182
  #
      l_hartree           6
  #
      cut_pot             4.0  2.0  1.0
      basis_dep_cutoff    1e-4
  #
      radial_base         31 7.0
      radial_multiplier   2
      angular_grids       specified
        division   0.4283  110
        division   0.4792  194
        division   0.5061  302
        division   0.7227  434
  #      division   0.8724  590
  #      division   0.9555  770
  #      division   2.9770  974
  #      outer_grid   974
        outer_grid  434
  ################################################################################
  #
  #  Definition of "minimal" basis
  #
  ################################################################################
  #     valence basis states
      valence      2  s   2.
  #     ion occupancy
      ion_occ      2  s   1.
  ################################################################################
  #
  #  Suggested additional basis functions. For production calculations,
  #  uncomment them one after another (the most important basis functions are
  #  listed first).
  #
  #  Constructed for dimers: 1.75 A, 2.0 A, 2.375 A, 3.00 A, 4.00 A
  #
  ################################################################################
  #  "First tier" - improvements: -677.26 meV to -34.75 meV
       ionic 2 p auto
       hydro 3 s 2.9
       hydro 3 d 3.5
  #  "Second tier" - improvements: -16.34 meV to -1.26 meV
       hydro 3 p 3.1
       hydro 4 d 4.7
       hydro 3 p 2.4
       hydro 4 f 7.6
       hydro 2 s 2.9
  #  "Third tier" - improvements: -0.27 meV to -0.05 meV
  #     hydro 2 p 8.2
  #     hydro 5 g 10.8
  #     hydro 4 f 7
  #     hydro 3 s 2.3
  #     hydro 4 d 3.8
  ################################################################################
  #
  # For methods that use the localized form of the "resolution of identity" for
  # the two-electron Coulomb operator (RI_method LVL), particularly Hartree-Fock and
  # hybrid density functional calculations, the highest accuracy can be obtained by
  # uncommenting the line beginning with "for_aux"  below, thus adding an extra g radial
  # function to the construction of the product basis set for the expansion.
  # See Ref. New J. Phys. 17, 093020 (2015) for more information, particularly Figs. 1 and 6.
  #
  ################################################################################
  #
  # for_aux hydro 5 g 6.0
  
  -----------------------------------------------------------------------
  Completed first pass over input file control.in .
  -----------------------------------------------------------------------
  
  
  -----------------------------------------------------------------------
  Parsing geometry.in (first pass over file, find array dimensions only).
  The contents of geometry.in will be repeated verbatim below
  unless switched off by setting 'verbatim_writeout .false.' .
  in the first line of geometry.in .
  -----------------------------------------------------------------------
  
  #
  # This is the geometry file that corresponds to the current relaxation step.
  # If you do not want this file to be written, set the "write_restart_geometry" flag to .false.
  #  aims_uuid : C92D7DEA-212F-4128-A62F-69C020CA8865
  #
  lattice_vector     19.12307144     -0.78645932     -0.00473685
  lattice_vector      0.78546084     18.50349821     -0.00461235
  lattice_vector     -0.00437924      0.00020606      2.11773290
  atom_frac       0.45760396      0.54046461      0.37883557 Be
  
  
  -----------------------------------------------------------------------
  Completed first pass over input file geometry.in .
  -----------------------------------------------------------------------
  

  Basic array size parameters:
  | Number of species                 :        1
  | Number of atoms                   :        1
  | Number of lattice vectors         :        3
  | Max. basis fn. angular momentum   :        3
  | Max. atomic/ionic basis occupied n:        2
  | Max. number of basis fn. types    :        3
  | Max. radial fns per species/type  :        7
  | Max. logarithmic grid size        :     1244
  | Max. radial integration grid size :       63
  | Max. angular integration grid size:      434
  | Max. angular grid division number :        8
  | Radial grid for Hartree potential :     1244
  | Number of spin channels           :        1

------------------------------------------------------------
          Reading file control.in.
------------------------------------------------------------
  XC: Using BLYP gradient-corrected functional.
  Found k-point grid:         1         1       500
  Occupation type: Gaussian broadening, width =   0.680000E+00 eV.
  Spin treatment: No spin polarisation.
  Initial spin moment per atom:   0.0000
  Kohn-Sham electronic structure solved by the ELSI library.
  The 'LVL' version of RI (resolution of identity) technique is used.
  ** This is a localized expansion of all basis function products.
     Its intended use are Hartree-Fock and hybrid functionals.
     For RPA, MP2, GW, etc., LVL is not yet as accurate. In those cases, check carefully.
  Using Kerker preconditioning with damping at q_0 =     0.2000E+01
  Convergence accuracy of self-consistent charge density:  0.1000E-05
  Convergence accuracy of forces:  0.1000E-03

  Plot band    1
  | begin  0.000000  0.000000  0.000000
  | end    0.000000  0.000000  0.500000
  | number of points:  101
  Calculating density of states with
  | energy interval :-25.000000 10.000000
  | points & tetrahedron method :  7001

  Reading configuration options for species Be                  .
  | Found nuclear charge :   4.0000
  | Found atomic mass :    9.0121819999999992      amu
  | Found l_max for Hartree potential  :   6
  | Found cutoff potl. onset [A], width [A], scale factor :    4.00000    2.00000    1.00000
  | Threshold for basis-dependent cutoff potential is   0.100000E-03
  | Found data for basic radial integration grid :    31 points, outermost radius =    7.000 A
  | Found multiplier for basic radial grid :   2
  | Found angular grid specification: user-specified.
  | Specified grid contains     5 separate shells.
  | Check grid settings after all constraints further below.
  | Found free-atom valence shell :  2 s   2.000
  | Found free-ion valence shell :  2 s   1.000
  | Found ionic basis function :  2 p , default cutoff radius.
  | Found hydrogenic basis function :  3 s   2.900
  | Found hydrogenic basis function :  3 d   3.500
  | Found hydrogenic basis function :  3 p   3.100
  | Found hydrogenic basis function :  4 d   4.700
  | Found hydrogenic basis function :  3 p   2.400
  | Found hydrogenic basis function :  4 f   7.600
  | Found hydrogenic basis function :  2 s   2.900
  Species Be                  : Missing cutoff potential type.
  Defaulting to exp(1/x)/(1-x)^2 type cutoff potential.
  Species Be: No 'logarithmic' tag. Using default grid for free atom:
  | Default logarithmic grid data [bohr] : 0.1000E-03 0.1000E+03 0.1012E+01
  | Will include ionic basis functions of  1.0-fold positive Be                   ion.
  Species Be: On-site basis accuracy parameter (for Gram-Schmidt orthonormalisation) not specified.
  Using default value basis_acc =  0.1000000E-03.
  Species Be                  : Using default innermost maximum threshold i_radial=  2 for radial functions.
  Species Be                  : Default cutoff onset for free atom density etc. : 0.40000000E+01 AA.
  Species Be                  : Basic radial grid will be enhanced according to radial_multiplier =   2, to contain    63 grid points.

  Finished reading input file 'control.in'.

------------------------------------------------------------


------------------------------------------------------------
          Reading geometry description geometry.in.
------------------------------------------------------------
  | The smallest distance between any two atoms is         2.11773744 AA.
  | The first atom of this pair is atom number                      1 .
  | The second atom of this pair is atom number                     1 .
  | Wigner-Seitz cell of the first atom image           0     0     1 .
  | (The Wigner-Seitz cell of the second atom is 0 0 0  by definition.)

  Symmetry information by spglib:
  | Precision set to  0.1E-04
  | Number of Operations  : 2
  | Space group           : 2
  | International         : P-1
  | Schoenflies           : Ci^1
  Input structure read successfully.
  The structure contains        1 atoms,  and a total of          4.000 electrons.

  Input geometry:
  | Unit cell:
  |       19.12307144       -0.78645932       -0.00473685
  |        0.78546084       18.50349821       -0.00461235
  |       -0.00437924        0.00020606        2.11773290
  | Atomic structure:
  |       Atom                x [A]            y [A]            z [A]
  |    1: Species Be            9.17364799        9.64067711        0.79761214

  Lattice parameters for 3D lattice (in Angstroms) :    19.139237   18.520162    2.117737
  Angle(s) between unit vectors (in degrees)       :    90.013724   90.132791   89.924320


  Quantities derived from the lattice vectors:
  | Reciprocal lattice vector 1:  0.327993 -0.013923  0.000680
  | Reciprocal lattice vector 2:  0.013941  0.338976 -0.000004
  | Reciprocal lattice vector 3:  0.000764  0.000707  2.966941
  | Unit cell volume                               :   0.750654E+03  A^3

  Fractional coordinates:
                         L1                L2                L3
       atom_frac         0.45760396        0.54046461        0.37883557  Be


  Finished reading input file 'control.in'.


------------------------------------------------------------
          Reading geometry description geometry.in.
------------------------------------------------------------

  Consistency checks for stacksize environment parameter are next.

  | Maximum stacksize for task 0: unlimited
  | Maximum stacksize for task 1: unlimited
  | Maximum stacksize for task 2: unlimited
  | Maximum stacksize for task 3: unlimited
  | Maximum stacksize for task 4: unlimited
  | Maximum stacksize for task 5: unlimited
  | Maximum stacksize for task 6: unlimited
  | Maximum stacksize for task 7: unlimited
  | Maximum stacksize for task 8: unlimited
  | Maximum stacksize for task 9: unlimited
  | Maximum stacksize for task 10: unlimited
  | Maximum stacksize for task 11: unlimited
  | Maximum stacksize for task 12: unlimited
  | Maximum stacksize for task 13: unlimited
  | Maximum stacksize for task 14: unlimited
  | Maximum stacksize for task 15: unlimited
  | Maximum stacksize for task 16: unlimited
  | Maximum stacksize for task 17: unlimited
  | Maximum stacksize for task 18: unlimited
  | Maximum stacksize for task 19: unlimited
  | Maximum stacksize for task 20: unlimited
  | Maximum stacksize for task 21: unlimited
  | Maximum stacksize for task 22: unlimited
  | Maximum stacksize for task 23: unlimited
  | Maximum stacksize for task 24: unlimited
  | Maximum stacksize for task 25: unlimited
  | Maximum stacksize for task 26: unlimited
  | Maximum stacksize for task 27: unlimited
  | Maximum stacksize for task 28: unlimited
  | Maximum stacksize for task 29: unlimited
  | Maximum stacksize for task 30: unlimited
  | Maximum stacksize for task 31: unlimited
  | Maximum stacksize for task 32: unlimited
  | Maximum stacksize for task 33: unlimited
  | Maximum stacksize for task 34: unlimited
  | Maximum stacksize for task 35: unlimited
  | Maximum stacksize for task 36: unlimited
  | Maximum stacksize for task 37: unlimited
  | Maximum stacksize for task 38: unlimited
  | Maximum stacksize for task 39: unlimited
  | Maximum stacksize for task 40: unlimited
  | Maximum stacksize for task 41: unlimited
  | Maximum stacksize for task 42: unlimited
  | Maximum stacksize for task 43: unlimited
  | Maximum stacksize for task 44: unlimited
  | Maximum stacksize for task 45: unlimited
  | Maximum stacksize for task 46: unlimited
  | Maximum stacksize for task 47: unlimited
  | Maximum stacksize for task 48: unlimited
  | Maximum stacksize for task 49: unlimited
  | Maximum stacksize for task 50: unlimited
  | Maximum stacksize for task 51: unlimited
  | Maximum stacksize for task 52: unlimited
  | Maximum stacksize for task 53: unlimited
  | Maximum stacksize for task 54: unlimited
  | Maximum stacksize for task 55: unlimited
  | Maximum stacksize for task 56: unlimited
  | Maximum stacksize for task 57: unlimited
  | Maximum stacksize for task 58: unlimited
  | Maximum stacksize for task 59: unlimited
  | Maximum stacksize for task 60: unlimited
  | Maximum stacksize for task 61: unlimited
  | Maximum stacksize for task 62: unlimited
  | Maximum stacksize for task 63: unlimited
  | Maximum stacksize for task 64: unlimited
  | Maximum stacksize for task 65: unlimited
  | Maximum stacksize for task 66: unlimited
  | Maximum stacksize for task 67: unlimited
  | Maximum stacksize for task 68: unlimited
  | Maximum stacksize for task 69: unlimited
  | Maximum stacksize for task 70: unlimited
  | Maximum stacksize for task 71: unlimited
  | Maximum stacksize for task 72: unlimited
  | Maximum stacksize for task 73: unlimited
  | Maximum stacksize for task 74: unlimited
  | Maximum stacksize for task 75: unlimited
  | Maximum stacksize for task 76: unlimited
  | Maximum stacksize for task 77: unlimited
  | Maximum stacksize for task 78: unlimited
  | Maximum stacksize for task 79: unlimited
  | Maximum stacksize for task 80: unlimited
  | Maximum stacksize for task 81: unlimited
  | Maximum stacksize for task 82: unlimited
  | Maximum stacksize for task 83: unlimited
  | Maximum stacksize for task 84: unlimited
  | Maximum stacksize for task 85: unlimited
  | Maximum stacksize for task 86: unlimited
  | Maximum stacksize for task 87: unlimited
  | Maximum stacksize for task 88: unlimited
  | Maximum stacksize for task 89: unlimited
  | Maximum stacksize for task 90: unlimited
  | Maximum stacksize for task 91: unlimited
  | Maximum stacksize for task 92: unlimited
  | Maximum stacksize for task 93: unlimited
  | Maximum stacksize for task 94: unlimited
  | Maximum stacksize for task 95: unlimited
  | Maximum stacksize for task 96: unlimited
  | Maximum stacksize for task 97: unlimited
  | Maximum stacksize for task 98: unlimited
  | Maximum stacksize for task 99: unlimited
  | Maximum stacksize for task 100: unlimited
  | Maximum stacksize for task 101: unlimited
  | Maximum stacksize for task 102: unlimited
  | Maximum stacksize for task 103: unlimited
  | Maximum stacksize for task 104: unlimited
  | Maximum stacksize for task 105: unlimited
  | Maximum stacksize for task 106: unlimited
  | Maximum stacksize for task 107: unlimited
  | Maximum stacksize for task 108: unlimited
  | Maximum stacksize for task 109: unlimited
  | Maximum stacksize for task 110: unlimited
  | Maximum stacksize for task 111: unlimited
  | Maximum stacksize for task 112: unlimited
  | Maximum stacksize for task 113: unlimited
  | Maximum stacksize for task 114: unlimited
  | Maximum stacksize for task 115: unlimited
  | Maximum stacksize for task 116: unlimited
  | Maximum stacksize for task 117: unlimited
  | Maximum stacksize for task 118: unlimited
  | Maximum stacksize for task 119: unlimited
  | Maximum stacksize for task 120: unlimited
  | Maximum stacksize for task 121: unlimited
  | Maximum stacksize for task 122: unlimited
  | Maximum stacksize for task 123: unlimited
  | Maximum stacksize for task 124: unlimited
  | Maximum stacksize for task 125: unlimited
  | Maximum stacksize for task 126: unlimited
  | Maximum stacksize for task 127: unlimited
  | Current stacksize for task 0: unlimited
  | Current stacksize for task 1: unlimited
  | Current stacksize for task 2: unlimited
  | Current stacksize for task 3: unlimited
  | Current stacksize for task 4: unlimited
  | Current stacksize for task 5: unlimited
  | Current stacksize for task 6: unlimited
  | Current stacksize for task 7: unlimited
  | Current stacksize for task 8: unlimited
  | Current stacksize for task 9: unlimited
  | Current stacksize for task 10: unlimited
  | Current stacksize for task 11: unlimited
  | Current stacksize for task 12: unlimited
  | Current stacksize for task 13: unlimited
  | Current stacksize for task 14: unlimited
  | Current stacksize for task 15: unlimited
  | Current stacksize for task 16: unlimited
  | Current stacksize for task 17: unlimited
  | Current stacksize for task 18: unlimited
  | Current stacksize for task 19: unlimited
  | Current stacksize for task 20: unlimited
  | Current stacksize for task 21: unlimited
  | Current stacksize for task 22: unlimited
  | Current stacksize for task 23: unlimited
  | Current stacksize for task 24: unlimited
  | Current stacksize for task 25: unlimited
  | Current stacksize for task 26: unlimited
  | Current stacksize for task 27: unlimited
  | Current stacksize for task 28: unlimited
  | Current stacksize for task 29: unlimited
  | Current stacksize for task 30: unlimited
  | Current stacksize for task 31: unlimited
  | Current stacksize for task 32: unlimited
  | Current stacksize for task 33: unlimited
  | Current stacksize for task 34: unlimited
  | Current stacksize for task 35: unlimited
  | Current stacksize for task 36: unlimited
  | Current stacksize for task 37: unlimited
  | Current stacksize for task 38: unlimited
  | Current stacksize for task 39: unlimited
  | Current stacksize for task 40: unlimited
  | Current stacksize for task 41: unlimited
  | Current stacksize for task 42: unlimited
  | Current stacksize for task 43: unlimited
  | Current stacksize for task 44: unlimited
  | Current stacksize for task 45: unlimited
  | Current stacksize for task 46: unlimited
  | Current stacksize for task 47: unlimited
  | Current stacksize for task 48: unlimited
  | Current stacksize for task 49: unlimited
  | Current stacksize for task 50: unlimited
  | Current stacksize for task 51: unlimited
  | Current stacksize for task 52: unlimited
  | Current stacksize for task 53: unlimited
  | Current stacksize for task 54: unlimited
  | Current stacksize for task 55: unlimited
  | Current stacksize for task 56: unlimited
  | Current stacksize for task 57: unlimited
  | Current stacksize for task 58: unlimited
  | Current stacksize for task 59: unlimited
  | Current stacksize for task 60: unlimited
  | Current stacksize for task 61: unlimited
  | Current stacksize for task 62: unlimited
  | Current stacksize for task 63: unlimited
  | Current stacksize for task 64: unlimited
  | Current stacksize for task 65: unlimited
  | Current stacksize for task 66: unlimited
  | Current stacksize for task 67: unlimited
  | Current stacksize for task 68: unlimited
  | Current stacksize for task 69: unlimited
  | Current stacksize for task 70: unlimited
  | Current stacksize for task 71: unlimited
  | Current stacksize for task 72: unlimited
  | Current stacksize for task 73: unlimited
  | Current stacksize for task 74: unlimited
  | Current stacksize for task 75: unlimited
  | Current stacksize for task 76: unlimited
  | Current stacksize for task 77: unlimited
  | Current stacksize for task 78: unlimited
  | Current stacksize for task 79: unlimited
  | Current stacksize for task 80: unlimited
  | Current stacksize for task 81: unlimited
  | Current stacksize for task 82: unlimited
  | Current stacksize for task 83: unlimited
  | Current stacksize for task 84: unlimited
  | Current stacksize for task 85: unlimited
  | Current stacksize for task 86: unlimited
  | Current stacksize for task 87: unlimited
  | Current stacksize for task 88: unlimited
  | Current stacksize for task 89: unlimited
  | Current stacksize for task 90: unlimited
  | Current stacksize for task 91: unlimited
  | Current stacksize for task 92: unlimited
  | Current stacksize for task 93: unlimited
  | Current stacksize for task 94: unlimited
  | Current stacksize for task 95: unlimited
  | Current stacksize for task 96: unlimited
  | Current stacksize for task 97: unlimited
  | Current stacksize for task 98: unlimited
  | Current stacksize for task 99: unlimited
  | Current stacksize for task 100: unlimited
  | Current stacksize for task 101: unlimited
  | Current stacksize for task 102: unlimited
  | Current stacksize for task 103: unlimited
  | Current stacksize for task 104: unlimited
  | Current stacksize for task 105: unlimited
  | Current stacksize for task 106: unlimited
  | Current stacksize for task 107: unlimited
  | Current stacksize for task 108: unlimited
  | Current stacksize for task 109: unlimited
  | Current stacksize for task 110: unlimited
  | Current stacksize for task 111: unlimited
  | Current stacksize for task 112: unlimited
  | Current stacksize for task 113: unlimited
  | Current stacksize for task 114: unlimited
  | Current stacksize for task 115: unlimited
  | Current stacksize for task 116: unlimited
  | Current stacksize for task 117: unlimited
  | Current stacksize for task 118: unlimited
  | Current stacksize for task 119: unlimited
  | Current stacksize for task 120: unlimited
  | Current stacksize for task 121: unlimited
  | Current stacksize for task 122: unlimited
  | Current stacksize for task 123: unlimited
  | Current stacksize for task 124: unlimited
  | Current stacksize for task 125: unlimited
  | Current stacksize for task 126: unlimited
  | Current stacksize for task 127: unlimited

  Consistency checks for the contents of control.in are next.

  MPI_IN_PLACE appears to work with this MPI implementation.
  | Keeping use_mpi_in_place .true. (see manual).
  Target number of points in a grid batch is not set. Defaulting to  100
  Method for grid partitioning is not set. Defaulting to parallel hash+maxmin partitioning.
  Batch size limit is not set. Defaulting to    200
  By default, will store active basis functions for each batch.
  If in need of memory, prune_basis_once .false. can be used to disable this option.
  communication_type for Hartree potential was not specified.
  Defaulting to calc_hartree .
  Defaulting to Pulay charge density mixer.
  Pulay mixer: Number of relevant iterations not set.
  Defaulting to    8 iterations.
  Pulay mixer: Number of initial linear mixing iterations not set.
  Defaulting to    0 iterations.
  Work space size for distributed Hartree potential not set.
  Defaulting to   0.200000E+03 MB.
  Mixing parameter for charge density mixing has not been set.
  Using default: charge_mix_param =     0.0500.
  The mixing parameter will be adjusted in iteration number     2 of the first full s.c.f. cycle only.
  Algorithm-dependent basis array size parameters:
  | n_max_pulay                         :        8
  Maximum number of self-consistency iterations not provided.
  Presetting  1000 iterations.
  Presetting      1001 iterations before the initial mixing cycle
  is restarted anyway using the sc_init_iter criterion / keyword.
  Presetting a factor      1.000 between actual scf density residual
  and density convergence criterion sc_accuracy_rho below which sc_init_iter
  takes no effect.
  Geometry relaxation not requested: no relaxation will be performed.
  Forces evaluation will include force correction term due to incomplete self-consistency (default).
  Handling of forces: Unphysical translation and rotation will be removed from forces.
  No accuracy limit for integral partition fn. given. Defaulting to  0.1000E-14.
  No threshold value for u(r) in integrations given. Defaulting to  0.1000E-05.
  No accuracy for occupation numbers given. Defaulting to  0.1000E-12.
  No threshold value for occupation numbers given. Defaulting to  0.0000E+00.
  No accuracy for fermi level given. Defaulting to  0.1000E-19.
  Maximum # of iterations to find E_F not set. Defaulting to  200.
 * You have   500 k-points in your system, but only   128 MPI-tasks available.
 * In this case using ScaLAPACK is not necessary / supported.
 * Switching to LAPACK (via ELSI) instead.
  Will not use alltoall communication since running on < 1024 CPUs.
  Threshold for basis singularities not set.
  Default threshold for basis singularities:  0.1000E-04
  partition_type (choice of integration weights) for integrals was not specified.
  | Using a version of the partition function of Stratmann and coworkers ('stratmann_sparse').
  | At each grid point, the set of atoms used to build the partition table is smoothly restricted to
  | only those atoms whose free-atom density would be non-zero at that grid point.
  Partitioning for Hartree potential was not defined. Using partition_type for integrals.
  | Adjusted default value of keyword multip_moments_threshold to:       0.10000000E-11
  | This value may affect high angular momentum components of the Hartree potential in periodic systems.
  Angular momentum expansion for Kerker preconditioner not set explicitly.
  | Using default value of   0
  No explicit requirement for turning off preconditioner.
  | By default, it will be turned off when the charge convergence reaches
  | sc_accuracy_rho  =   0.100000E-05
  No special mixing parameter while Kerker preconditioner is on.
  Using default: charge_mix_param =     0.0500.
  No q(lm)/r^(l+1) cutoff set for long-range Hartree potential.
  | Using default value of  0.100000E-09 .
  | Verify using the multipole_threshold keyword.
  Defaulting to new monopole extrapolation.
  Density update method: automatic selection selected.
  Using density matrix based charge density update.
  Using density matrix based charge density update.
  Using packed matrix style: index .
  Defaulting to use time-reversal symmetry for k-point grid.
  Charge integration errors on the 3D integration grid will be compensated
  by explicit normalization and distribution of residual charges.
  Use the "compensate_multipole_errors" flag to change this behaviour.
  Set 'collect_eigenvectors' to be '.true.' for all serial calculations. This is mandatory.
  Set 'collect_eigenvectors' to be '.true.' for KS_method lapack_fast and serial.

  Consistency checks for the contents of geometry.in are next.


  Range separation radius for Ewald summation (hartree_convergence_parameter):      5.00000000 bohr.
 * Warning! You did not set the 'relativistic' flag in input file 'control.in'.
 * Since you are not attempting to treat any elements beyond Ca(Z=20), FHI-aims
 * will default to 'relativistic none'.
 * You must ensure that this is really what you want!!
 * For example, DO NOT compute total-energy differences between results from
 * different settings of the 'relativistic' flag.
  Number of empty states per atom not set in control.in - providing a guess from actual geometry.
  | Total number of empty states used during s.c.f. cycle:        2
  If you use a very high smearing, use empty_states (per atom!) in control.in to increase this value.

  Structure-dependent array size parameters: 
  | Maximum number of distinct radial functions  :       10
  | Maximum number of basis functions            :       30
  | Number of Kohn-Sham states (occupied + empty):        4
------------------------------------------------------------

------------------------------------------------------------
          Preparing all fixed parts of the calculation.
------------------------------------------------------------
  Determining machine precision:
     2.2250738585072014E-308
  Setting up grids for atomic and cluster calculations.

  Creating wave function, potential, and density for free atoms.

  Species: Be

  List of occupied orbitals and eigenvalues:
    n    l              occ      energy [Ha]    energy [eV]
    1    0           2.0000        -3.913759      -106.4988
    2    0           2.0000        -0.199308        -5.4235


  Adding cutoff potential to free-atom effective potential.
  Creating fixed part of basis set: Ionic, confined, hydrogenic.

  Be                   ion:

  List of free ionic orbitals and eigenvalues:
    n    l      energy [Ha]    energy [eV]
    1    0        -4.342042      -118.1530
    2    0        -0.501123       -13.6362


  List of ionic basis orbitals and eigenvalues:
    n    l      energy [Ha]    energy [eV]    outer radius [A]
    2    1        -0.358875        -9.7655       5.412664


  Be                   hydrogenic:

  List of hydrogenic basis orbitals: 
    n    l      effective z      eigenvalue [eV]  inner max. [A]     outer max. [A]     outer radius [A]   
    3    0         2.900000       -12.5649           0.134902           2.357125           5.479240
    3    2         3.500000       -18.5140           1.359774           1.359774           5.412664
    3    1         3.100000       -14.4728           0.511360           2.035502           5.479240
    4    2         4.700000       -18.6841           0.765477           2.386117           5.479240
    3    1         2.400000        -8.3476           0.661030           2.567717           5.479240
    4    3         7.600000       -49.1163           1.118198           1.118198           4.789814
    2    0         2.900000       -28.6057           0.139942           0.953891           4.848728

  Creating atomic-like basis functions for current effective potential.

  Species Be                  :

  List of atomic basis orbitals and eigenvalues:
    n    l      energy [Ha]    energy [eV]    outer radius [A]
    1    0        -3.913759      -106.4988       3.047029
    2    0        -0.199308        -5.4235       5.412664

  Assembling full basis from fixed parts.
  | Species Be :   atomic orbital   1 s accepted.
  | Species Be :    hydro orbital   2 s accepted.
  | Species Be :   atomic orbital   2 s accepted.
  | Species Be :    hydro orbital   3 s accepted.
  | Species Be :    ionic orbital   2 p accepted.
  | Species Be :    hydro orbital   3 p accepted.
  | Species Be :    hydro orbital   3 p accepted.
  | Species Be :    hydro orbital   3 d accepted.
  | Species Be :    hydro orbital   4 d accepted.
  | Species Be :    hydro orbital   4 f accepted.

  Basis size parameters after reduction:
  | Total number of radial functions:       10
  | Total number of basis functions :       30

  Per-task memory consumption for arrays in subroutine allocate_ext:
  |           2.389704MB.
  Testing on-site integration grid accuracy.
  |  Species  Function  <phi|h_atom|phi> (log., in eV)  <phi|h_atom|phi> (rad., in eV)
           1        1               -106.4988007835               -106.4988004706
           1        2                 -4.1099753504                 -4.1099849565
           1        3                 11.3139553260                 11.3185359455
           1        4                185.1179512039                185.1208636606
           1        5                 -1.4281224223                 -1.4279635304
           1        6                  8.2393484974                  8.2416398338
           1        7                 15.5388481167                 15.5660332986
           1        8                  9.0963392864                  9.0966073065
           1        9                 19.6660387642                 19.6703030144
           1       10                 36.0283232581                 36.0283201097

  Preparing densities etc. for the partition functions (integrals / Hartree potential).

  Preparations completed.
  max(cpu_time)          :      0.132 s.
  Wall clock time (cpu1) :      0.133 s.
------------------------------------------------------------

------------------------------------------------------------
          Begin self-consistency loop: Initialization.

          Date     :  20220323, Time     :  133700.506
------------------------------------------------------------

  Initializing index lists of integration centers etc. from given atomic structure:
  Mapping all atomic coordinates to central unit cell.

  Initializing the k-points
  Using symmetry for reducing the k-points
  | k-points reduced from:      500 to      251
  | Number of k-points                             :       251
  The eigenvectors in the calculations are COMPLEX.
  | K-points in task   0:         1
  | K-points in task   1:         2
  | K-points in task   2:         2
  | K-points in task   3:         2
  | K-points in task   4:         2
  | K-points in task   5:         2
  | K-points in task   6:         2
  | K-points in task   7:         2
  | K-points in task   8:         2
  | K-points in task   9:         2
  | K-points in task  10:         2
  | K-points in task  11:         2
  | K-points in task  12:         2
  | K-points in task  13:         2
  | K-points in task  14:         2
  | K-points in task  15:         2
  | K-points in task  16:         2
  | K-points in task  17:         2
  | K-points in task  18:         2
  | K-points in task  19:         2
  | K-points in task  20:         2
  | K-points in task  21:         2
  | K-points in task  22:         2
  | K-points in task  23:         2
  | K-points in task  24:         2
  | K-points in task  25:         2
  | K-points in task  26:         2
  | K-points in task  27:         2
  | K-points in task  28:         2
  | K-points in task  29:         2
  | K-points in task  30:         2
  | K-points in task  31:         2
  | K-points in task  32:         2
  | K-points in task  33:         2
  | K-points in task  34:         2
  | K-points in task  35:         2
  | K-points in task  36:         2
  | K-points in task  37:         2
  | K-points in task  38:         2
  | K-points in task  39:         2
  | K-points in task  40:         2
  | K-points in task  41:         2
  | K-points in task  42:         2
  | K-points in task  43:         2
  | K-points in task  44:         2
  | K-points in task  45:         2
  | K-points in task  46:         2
  | K-points in task  47:         2
  | K-points in task  48:         2
  | K-points in task  49:         2
  | K-points in task  50:         2
  | K-points in task  51:         2
  | K-points in task  52:         2
  | K-points in task  53:         2
  | K-points in task  54:         2
  | K-points in task  55:         2
  | K-points in task  56:         2
  | K-points in task  57:         2
  | K-points in task  58:         2
  | K-points in task  59:         2
  | K-points in task  60:         2
  | K-points in task  61:         2
  | K-points in task  62:         2
  | K-points in task  63:         2
  | K-points in task  64:         2
  | K-points in task  65:         2
  | K-points in task  66:         2
  | K-points in task  67:         2
  | K-points in task  68:         2
  | K-points in task  69:         2
  | K-points in task  70:         2
  | K-points in task  71:         2
  | K-points in task  72:         2
  | K-points in task  73:         2
  | K-points in task  74:         2
  | K-points in task  75:         2
  | K-points in task  76:         2
  | K-points in task  77:         2
  | K-points in task  78:         2
  | K-points in task  79:         2
  | K-points in task  80:         2
  | K-points in task  81:         2
  | K-points in task  82:         2
  | K-points in task  83:         2
  | K-points in task  84:         2
  | K-points in task  85:         2
  | K-points in task  86:         2
  | K-points in task  87:         2
  | K-points in task  88:         2
  | K-points in task  89:         2
  | K-points in task  90:         2
  | K-points in task  91:         2
  | K-points in task  92:         2
  | K-points in task  93:         2
  | K-points in task  94:         2
  | K-points in task  95:         2
  | K-points in task  96:         2
  | K-points in task  97:         2
  | K-points in task  98:         2
  | K-points in task  99:         2
  | K-points in task 100:         2
  | K-points in task 101:         2
  | K-points in task 102:         2
  | K-points in task 103:         2
  | K-points in task 104:         2
  | K-points in task 105:         2
  | K-points in task 106:         2
  | K-points in task 107:         2
  | K-points in task 108:         2
  | K-points in task 109:         2
  | K-points in task 110:         2
  | K-points in task 111:         2
  | K-points in task 112:         2
  | K-points in task 113:         2
  | K-points in task 114:         2
  | K-points in task 115:         2
  | K-points in task 116:         2
  | K-points in task 117:         2
  | K-points in task 118:         2
  | K-points in task 119:         2
  | K-points in task 120:         2
  | K-points in task 121:         2
  | K-points in task 122:         2
  | K-points in task 123:         2
  | K-points in task 124:         1
  | K-points in task 125:         1
  | K-points in task 126:         1
  | K-points in task 127:         1
  | Number of basis functions in the Hamiltonian integrals :       712
  | Number of basis functions in a single unit cell        :        30
  | Number of centers in hartree potential         :        17
  | Number of centers in hartree multipole         :        13
  | Number of centers in electron density summation:        11
  | Number of centers in basis integrals           :        29
  | Number of centers in integrals                 :        24
  | Number of centers in hamiltonian               :        11
  | Consuming        117 KiB for k_phase.
  | Number of super-cells (origin) [n_cells]                     :         475
  | Number of super-cells (after PM_index) [n_cells]             :          30
  | Number of super-cells in hamiltonian [n_cells_in_hamiltonian]:          12
  | Size of matrix packed + index [n_hamiltonian_matrix_size] :        4812
  | Estimated reciprocal-space cutoff momentum G_max:         1.90186217 bohr^-1 .
  | Reciprocal lattice points for long-range Hartree potential:     594
  Partitioning the integration grid into batches with parallel hashing+maxmin method.
  | Number of batches:      344
  | Maximal batch size:     116
  | Minimal batch size:       1
  | Average batch size:      54.855
  | Standard deviation of batch sizes:      23.986

  Integration load balanced across   128 MPI tasks.
  Work distribution over tasks is as follows:
  Task     0 has        173 integration points.
  Task     1 has        162 integration points.
  Task     2 has        219 integration points.
  Task     3 has        128 integration points.
  Task     4 has        158 integration points.
  Task     5 has        165 integration points.
  Task     6 has        132 integration points.
  Task     7 has        162 integration points.
  Task     8 has        143 integration points.
  Task     9 has        164 integration points.
  Task    10 has        159 integration points.
  Task    11 has        189 integration points.
  Task    12 has        157 integration points.
  Task    13 has        187 integration points.
  Task    14 has        122 integration points.
  Task    15 has        192 integration points.
  Task    16 has        182 integration points.
  Task    17 has        174 integration points.
  Task    18 has        177 integration points.
  Task    19 has        166 integration points.
  Task    20 has        189 integration points.
  Task    21 has        126 integration points.
  Task    22 has        124 integration points.
  Task    23 has        176 integration points.
  Task    24 has        179 integration points.
  Task    25 has        124 integration points.
  Task    26 has        154 integration points.
  Task    27 has        165 integration points.
  Task    28 has        168 integration points.
  Task    29 has        128 integration points.
  Task    30 has        162 integration points.
  Task    31 has        202 integration points.
  Task    32 has        191 integration points.
  Task    33 has        148 integration points.
  Task    34 has        160 integration points.
  Task    35 has        166 integration points.
  Task    36 has        175 integration points.
  Task    37 has        130 integration points.
  Task    38 has        140 integration points.
  Task    39 has        186 integration points.
  Task    40 has        159 integration points.
  Task    41 has        180 integration points.
  Task    42 has        122 integration points.
  Task    43 has        159 integration points.
  Task    44 has        124 integration points.
  Task    45 has        163 integration points.
  Task    46 has        182 integration points.
  Task    47 has        185 integration points.
  Task    48 has        161 integration points.
  Task    49 has        163 integration points.
  Task    50 has        183 integration points.
  Task    51 has        121 integration points.
  Task    52 has        181 integration points.
  Task    53 has        122 integration points.
  Task    54 has        120 integration points.
  Task    55 has        121 integration points.
  Task    56 has        184 integration points.
  Task    57 has        124 integration points.
  Task    58 has        120 integration points.
  Task    59 has        123 integration points.
  Task    60 has        185 integration points.
  Task    61 has        123 integration points.
  Task    62 has        121 integration points.
  Task    63 has        122 integration points.
  Task    64 has        122 integration points.
  Task    65 has        128 integration points.
  Task    66 has        194 integration points.
  Task    67 has        124 integration points.
  Task    68 has        184 integration points.
  Task    69 has        126 integration points.
  Task    70 has        120 integration points.
  Task    71 has        121 integration points.
  Task    72 has        186 integration points.
  Task    73 has        122 integration points.
  Task    74 has        185 integration points.
  Task    75 has        124 integration points.
  Task    76 has        121 integration points.
  Task    77 has        125 integration points.
  Task    78 has        188 integration points.
  Task    79 has        123 integration points.
  Task    80 has        120 integration points.
  Task    81 has        169 integration points.
  Task    82 has        186 integration points.
  Task    83 has        123 integration points.
  Task    84 has        121 integration points.
  Task    85 has        124 integration points.
  Task    86 has        183 integration points.
  Task    87 has        125 integration points.
  Task    88 has        182 integration points.
  Task    89 has        126 integration points.
  Task    90 has        120 integration points.
  Task    91 has        121 integration points.
  Task    92 has        121 integration points.
  Task    93 has        122 integration points.
  Task    94 has        120 integration points.
  Task    95 has        123 integration points.
  Task    96 has        120 integration points.
  Task    97 has        171 integration points.
  Task    98 has        182 integration points.
  Task    99 has        122 integration points.
  Task   100 has        119 integration points.
  Task   101 has        125 integration points.
  Task   102 has        121 integration points.
  Task   103 has        125 integration points.
  Task   104 has        122 integration points.
  Task   105 has        191 integration points.
  Task   106 has        120 integration points.
  Task   107 has        122 integration points.
  Task   108 has        119 integration points.
  Task   109 has        123 integration points.
  Task   110 has        185 integration points.
  Task   111 has        126 integration points.
  Task   112 has        122 integration points.
  Task   113 has        184 integration points.
  Task   114 has        186 integration points.
  Task   115 has        120 integration points.
  Task   116 has        120 integration points.
  Task   117 has        123 integration points.
  Task   118 has        119 integration points.
  Task   119 has        124 integration points.
  Task   120 has        123 integration points.
  Task   121 has        125 integration points.
  Task   122 has        121 integration points.
  Task   123 has        123 integration points.
  Task   124 has        122 integration points.
  Task   125 has        124 integration points.
  Task   126 has        185 integration points.
  Task   127 has        125 integration points.
  Initializing partition tables, free-atom densities, potentials, etc. across the integration grid (initialize_grid_storage).
  | initialize_grid_storage: Actual outermost partition radius vs. multipole_radius_free
  | (-- VB: in principle, multipole_radius_free should be larger, hence this output)
  | Species        1: Confinement radius =              6.000000000000000 AA, multipole_radius_free =              6.042188081213826 AA.
  | Species        1: outer_partition_radius set to              6.042188081213826 AA .
  | The sparse table of interatomic distances needs          2.45 kbyte instead of         6.73 kbyte of memory.
  | Net number of integration points:    18870
  | of which are non-zero points    :    17610
  | Numerical average free-atom electrostatic potential    :     -0.18606734 eV
  Renormalizing the initial density to the exact electron count on the 3D integration grid.
  | Initial density: Formal number of electrons (from input files) :       4.0000000000
  | Integrated number of electrons on 3D grid     :       4.0000005476
  | Charge integration error                      :       0.0000005476
  | Normalization factor for density and gradient :       0.9999998631
  Renormalizing the free-atom superposition density to the exact electron count on the 3D integration grid.
  | Formal number of electrons (from input files) :       4.0000000000
  | Integrated number of electrons on 3D grid     :       4.0000005476
  | Charge integration error                      :       0.0000005476
  | Normalization factor for density and gradient :       0.9999998631
  Obtaining max. number of non-zero basis functions in each batch (get_n_compute_maxes).
  | Maximal number of non-zero basis functions:      170 in task     0
  | Maximal number of non-zero basis functions:      169 in task     1
  | Maximal number of non-zero basis functions:      169 in task     2
  | Maximal number of non-zero basis functions:      162 in task     3
  | Maximal number of non-zero basis functions:      169 in task     4
  | Maximal number of non-zero basis functions:      178 in task     5
  | Maximal number of non-zero basis functions:      161 in task     6
  | Maximal number of non-zero basis functions:      168 in task     7
  | Maximal number of non-zero basis functions:      148 in task     8
  | Maximal number of non-zero basis functions:      148 in task     9
  | Maximal number of non-zero basis functions:      169 in task    10
  | Maximal number of non-zero basis functions:      170 in task    11
  | Maximal number of non-zero basis functions:      148 in task    12
  | Maximal number of non-zero basis functions:      169 in task    13
  | Maximal number of non-zero basis functions:      148 in task    14
  | Maximal number of non-zero basis functions:      169 in task    15
  | Maximal number of non-zero basis functions:      161 in task    16
  | Maximal number of non-zero basis functions:      162 in task    17
  | Maximal number of non-zero basis functions:      148 in task    18
  | Maximal number of non-zero basis functions:      148 in task    19
  | Maximal number of non-zero basis functions:      148 in task    20
  | Maximal number of non-zero basis functions:      148 in task    21
  | Maximal number of non-zero basis functions:      148 in task    22
  | Maximal number of non-zero basis functions:      169 in task    23
  | Maximal number of non-zero basis functions:      160 in task    24
  | Maximal number of non-zero basis functions:      148 in task    25
  | Maximal number of non-zero basis functions:      169 in task    26
  | Maximal number of non-zero basis functions:      148 in task    27
  | Maximal number of non-zero basis functions:      148 in task    28
  | Maximal number of non-zero basis functions:      137 in task    29
  | Maximal number of non-zero basis functions:      149 in task    30
  | Maximal number of non-zero basis functions:      168 in task    31
  | Maximal number of non-zero basis functions:      169 in task    32
  | Maximal number of non-zero basis functions:      148 in task    33
  | Maximal number of non-zero basis functions:      170 in task    34
  | Maximal number of non-zero basis functions:      170 in task    35
  | Maximal number of non-zero basis functions:      169 in task    36
  | Maximal number of non-zero basis functions:      169 in task    37
  | Maximal number of non-zero basis functions:      169 in task    38
  | Maximal number of non-zero basis functions:      169 in task    39
  | Maximal number of non-zero basis functions:      178 in task    40
  | Maximal number of non-zero basis functions:      162 in task    41
  | Maximal number of non-zero basis functions:      169 in task    42
  | Maximal number of non-zero basis functions:      148 in task    43
  | Maximal number of non-zero basis functions:      148 in task    44
  | Maximal number of non-zero basis functions:      168 in task    45
  | Maximal number of non-zero basis functions:      160 in task    46
  | Maximal number of non-zero basis functions:      170 in task    47
  | Maximal number of non-zero basis functions:      169 in task    48
  | Maximal number of non-zero basis functions:      148 in task    49
  | Maximal number of non-zero basis functions:      161 in task    50
  | Maximal number of non-zero basis functions:      148 in task    51
  | Maximal number of non-zero basis functions:      169 in task    52
  | Maximal number of non-zero basis functions:      169 in task    53
  | Maximal number of non-zero basis functions:      148 in task    54
  | Maximal number of non-zero basis functions:      148 in task    55
  | Maximal number of non-zero basis functions:      148 in task    56
  | Maximal number of non-zero basis functions:      170 in task    57
  | Maximal number of non-zero basis functions:      148 in task    58
  | Maximal number of non-zero basis functions:      169 in task    59
  | Maximal number of non-zero basis functions:      169 in task    60
  | Maximal number of non-zero basis functions:      158 in task    61
  | Maximal number of non-zero basis functions:      148 in task    62
  | Maximal number of non-zero basis functions:      169 in task    63
  | Maximal number of non-zero basis functions:      148 in task    64
  | Maximal number of non-zero basis functions:      170 in task    65
  | Maximal number of non-zero basis functions:      148 in task    66
  | Maximal number of non-zero basis functions:      169 in task    67
  | Maximal number of non-zero basis functions:      170 in task    68
  | Maximal number of non-zero basis functions:      169 in task    69
  | Maximal number of non-zero basis functions:      148 in task    70
  | Maximal number of non-zero basis functions:      170 in task    71
  | Maximal number of non-zero basis functions:      169 in task    72
  | Maximal number of non-zero basis functions:      169 in task    73
  | Maximal number of non-zero basis functions:      163 in task    74
  | Maximal number of non-zero basis functions:      170 in task    75
  | Maximal number of non-zero basis functions:      163 in task    76
  | Maximal number of non-zero basis functions:      158 in task    77
  | Maximal number of non-zero basis functions:      163 in task    78
  | Maximal number of non-zero basis functions:      170 in task    79
  | Maximal number of non-zero basis functions:      170 in task    80
  | Maximal number of non-zero basis functions:      170 in task    81
  | Maximal number of non-zero basis functions:      169 in task    82
  | Maximal number of non-zero basis functions:      148 in task    83
  | Maximal number of non-zero basis functions:      163 in task    84
  | Maximal number of non-zero basis functions:      163 in task    85
  | Maximal number of non-zero basis functions:      163 in task    86
  | Maximal number of non-zero basis functions:      169 in task    87
  | Maximal number of non-zero basis functions:      170 in task    88
  | Maximal number of non-zero basis functions:      170 in task    89
  | Maximal number of non-zero basis functions:      148 in task    90
  | Maximal number of non-zero basis functions:      148 in task    91
  | Maximal number of non-zero basis functions:      148 in task    92
  | Maximal number of non-zero basis functions:      148 in task    93
  | Maximal number of non-zero basis functions:      170 in task    94
  | Maximal number of non-zero basis functions:      169 in task    95
  | Maximal number of non-zero basis functions:      169 in task    96
  | Maximal number of non-zero basis functions:      169 in task    97
  | Maximal number of non-zero basis functions:      169 in task    98
  | Maximal number of non-zero basis functions:      169 in task    99
  | Maximal number of non-zero basis functions:      148 in task   100
  | Maximal number of non-zero basis functions:      148 in task   101
  | Maximal number of non-zero basis functions:      169 in task   102
  | Maximal number of non-zero basis functions:      169 in task   103
  | Maximal number of non-zero basis functions:      148 in task   104
  | Maximal number of non-zero basis functions:      169 in task   105
  | Maximal number of non-zero basis functions:      169 in task   106
  | Maximal number of non-zero basis functions:      162 in task   107
  | Maximal number of non-zero basis functions:      169 in task   108
  | Maximal number of non-zero basis functions:      148 in task   109
  | Maximal number of non-zero basis functions:      169 in task   110
  | Maximal number of non-zero basis functions:      148 in task   111
  | Maximal number of non-zero basis functions:      169 in task   112
  | Maximal number of non-zero basis functions:      170 in task   113
  | Maximal number of non-zero basis functions:      148 in task   114
  | Maximal number of non-zero basis functions:      148 in task   115
  | Maximal number of non-zero basis functions:      148 in task   116
  | Maximal number of non-zero basis functions:      148 in task   117
  | Maximal number of non-zero basis functions:      148 in task   118
  | Maximal number of non-zero basis functions:      169 in task   119
  | Maximal number of non-zero basis functions:      148 in task   120
  | Maximal number of non-zero basis functions:      148 in task   121
  | Maximal number of non-zero basis functions:      148 in task   122
  | Maximal number of non-zero basis functions:      170 in task   123
  | Maximal number of non-zero basis functions:      148 in task   124
  | Maximal number of non-zero basis functions:      148 in task   125
  | Maximal number of non-zero basis functions:      163 in task   126
  | Maximal number of non-zero basis functions:      169 in task   127
  Allocating        0.002 MB for KS_eigenvector_complex
  Integrating Hamiltonian matrix: batch-based integration.
  Time summed over all CPUs for integration: real work        0.203 s, elapsed        0.327 s => Consider using load balancing!
  Integrating overlap matrix.
  Time summed over all CPUs for integration: real work        0.126 s, elapsed        0.184 s
  Decreasing sparse matrix size:
  | Tolerance:  0.1000E-12
  Hamiltonian matrix
  | Array has     4045 nonzero elements out of     4812 elements
  | Sparsity factor is 0.159
  Overlap matrix
  | Array has     3880 nonzero elements out of     4812 elements
  | Sparsity factor is 0.194
  New size of hamiltonian matrix:        4276

  Updating Kohn-Sham eigenvalues and eigenvectors using ELSI and the (modified) LAPACK eigensolver.
  Singularity check in k-point 128, task 0 (analysis for other k-points/tasks may follow below):
  Overlap matrix is not singular
  | Lowest and highest eigenvalues :  0.5324E-03,  0.2935E+01
  Finished singularity check of overlap matrix
  | Time :     0.001 s
  Starting LAPACK eigensolver
  Finished Cholesky decomposition
  | Time :     0.001 s
  Finished transformation to standard eigenproblem
  | Time :     0.000 s
  Finished solving standard eigenproblem
  | Time :     0.001 s
  Finished back-transformation of eigenvectors
  | Time :     0.000 s

  Obtaining occupation numbers and chemical potential using ELSI.
  | Chemical potential (Fermi level):    -5.14400974 eV
  Writing Kohn-Sham eigenvalues.
  K-point:       1 at    0.000000    0.000000    0.000000 (in units of recip. lattice)

  State    Occupation    Eigenvalue [Ha]    Eigenvalue [eV]
      1       2.00000          -3.934502         -107.06326
      2       2.00000          -0.330328           -8.98869
      3       0.11606          -0.161270           -4.38837
      4       0.11606          -0.161270           -4.38837

  What follows are estimated values for band gap, HOMO, LUMO, etc.
  | They are estimated on a discrete k-point grid and not necessarily exact.
  | For converged numbers, create a DOS and/or band structure plot on a denser k-grid.

  Highest occupied state (VBM) at     -5.66273597 eV (relative to internal zero)
  | Occupation number:      1.71932682
  | K-point:     189 at    0.000000    0.000000    0.500000 (in units of recip. lattice)

  Lowest unoccupied state (CBM) at    -4.38837301 eV (relative to internal zero)
  | Occupation number:      0.11606256
  | K-point:       1 at    0.000000    0.000000    0.000000 (in units of recip. lattice)

  ESTIMATED overall HOMO-LUMO gap:      1.27436296 eV between HOMO at k-point 189 and LUMO at k-point 1
  | This appears to be an indirect band gap.
  | Smallest direct gap :      4.60032051 eV for k_point 1 at    0.000000    0.000000    0.000000 (in units of recip. lattice)
  However, this system has fractional occupation numbers. Since we use a finite k-point grid,
  this material is metallic within the approximate finite broadening function (occupation_type)
  applied to determine the occupation numbers.
  Calculating total energy contributions from superposition of free atom densities.

  Total energy components:
  | Sum of eigenvalues            :          -8.42055434 Ha        -229.13494190 eV
  | XC energy correction          :          -2.79869419 Ha         -76.15634381 eV
  | XC potential correction       :           3.57047920 Ha          97.15768236 eV
  | Free-atom electrostatic energy:          -7.06590546 Ha        -192.27307037 eV
  | Hartree energy correction     :          -0.00000000 Ha          -0.00000000 eV
  | Entropy correction            :          -0.00118109 Ha          -0.03213921 eV
  | ---------------------------
  | Total energy                  :         -14.71467480 Ha        -400.40667372 eV
  | Total energy, T -> 0          :         -14.71585589 Ha        -400.43881293 eV  <-- do not rely on this value for anything but (periodic) metals
  | Electronic free energy        :         -14.71703699 Ha        -400.47095214 eV

  Derived energy quantities:
  | Kinetic energy                :          14.64520215 Ha         398.51622679 eV
  | Electrostatic energy          :         -26.56118275 Ha        -722.76655671 eV
  | Energy correction for multipole
  | error in Hartree potential    :           0.00000000 Ha           0.00000000 eV
  | Sum of eigenvalues per atom                           :        -229.13494190 eV
  | Total energy (T->0) per atom                          :        -400.43881293 eV  <-- do not rely on this value for anything but (periodic) metals
  | Electronic free energy per atom                       :        -400.47095214 eV
  Initialize hartree_potential_storage
  Max. number of atoms included in rho_multipole:            1

  End scf initialization - timings             :  max(cpu_time)    wall_clock(cpu1)
  | Time for scf. initialization               :        0.069 s           0.077 s
  | Boundary condition initialization          :        0.020 s           0.020 s
  | Integration                                :        0.007 s           0.008 s
  | Solution of K.-S. eqns.                    :        0.006 s           0.007 s
  | Grid partitioning                          :        0.028 s           0.029 s
  | Preloading free-atom quantities on grid    :        0.005 s           0.006 s
  | Free-atom superposition energy             :        0.001 s           0.001 s
  | Total energy evaluation                    :        0.000 s           0.001 s

  Partial memory accounting:
  | Current value for overall tracked memory usage:
  |   Minimum:        0.084 MB (on task   0)
  |   Maximum:        0.086 MB (on task   1)
  |   Average:        0.085 MB
  | Peak value for overall tracked memory usage:
  |   Minimum:        0.606 MB (on task  29 after allocating wave)
  |   Maximum:        0.814 MB (on task   5 after allocating wave)
  |   Average:        0.722 MB
  | Largest tracked array allocation so far:
  |   Minimum:        0.143 MB (hamiltonian_shell on task  29)
  |   Maximum:        0.242 MB (hamiltonian_shell on task   5)
  |   Average:        0.197 MB
  Note:  These values currently only include a subset of arrays which are explicitly tracked.
  The "true" memory usage will be greater.
------------------------------------------------------------
  Evaluating new KS density using the density matrix
  Evaluating density matrix
  Time summed over all CPUs for getting density from density matrix: real work        0.381 s, elapsed        0.540 s
  Integration grid: deviation in total charge (<rho> - N_e) =   0.000000E+00

  Time for density update prior                :  max(cpu_time)    wall_clock(cpu1)
  | self-consistency iterative process         :        0.007 s           0.007 s

------------------------------------------------------------
          Begin self-consistency iteration #    1

  Date     :  20220323, Time     :  133700.592
------------------------------------------------------------
  Pulay mixing of updated and previous charge densities.
  Renormalizing the density to the exact electron count on the 3D integration grid.
  | Formal number of electrons (from input files) :       4.0000000000
  | Integrated number of electrons on 3D grid     :       3.9997916289
  | Charge integration error                      :      -0.0002083711
  | Normalization factor for density and gradient :       1.0000520955

  Evaluating partitioned Hartree potential by multipole expansion.
  | Original multipole sum: apparent total charge =   0.193868E-15
  | Sum of charges compensated after spline to logarithmic grids =  -0.639234E-08
  | Analytical far-field extrapolation by fixed multipoles:
  | Hartree multipole sum: apparent total charge =  -0.000000E+00
  Summing up the Hartree potential.
  Time summed over all CPUs for potential: real work        0.312 s, elapsed        0.435 s
  | RMS charge density error from multipole expansion :   0.285134E-04
  | Average real-space part of the electrostatic potential :      0.00236004 eV

  Integrating Hamiltonian matrix: batch-based integration.
  Time summed over all CPUs for integration: real work        0.154 s, elapsed        0.226 s => Consider using load balancing!

  Updating Kohn-Sham eigenvalues and eigenvectors using ELSI and the (modified) LAPACK eigensolver.
  Starting LAPACK eigensolver
  Finished Cholesky decomposition
  | Time :     0.000 s
  Finished transformation to standard eigenproblem
  | Time :     0.000 s
  Finished solving standard eigenproblem
  | Time :     0.000 s
  Finished back-transformation of eigenvectors
  | Time :     0.000 s

  Obtaining occupation numbers and chemical potential using ELSI.
  | Chemical potential (Fermi level):    -5.04505747 eV
  Writing Kohn-Sham eigenvalues.
  K-point:       1 at    0.000000    0.000000    0.000000 (in units of recip. lattice)

  State    Occupation    Eigenvalue [Ha]    Eigenvalue [eV]
      1       2.00000          -3.928091         -106.88880
      2       2.00000          -0.326534           -8.88545
      3       0.12246          -0.158110           -4.30239
      4       0.12246          -0.158110           -4.30239

  What follows are estimated values for band gap, HOMO, LUMO, etc.
  | They are estimated on a discrete k-point grid and not necessarily exact.
  | For converged numbers, create a DOS and/or band structure plot on a denser k-grid.

  Highest occupied state (VBM) at     -5.54753595 eV (relative to internal zero)
  | Occupation number:      1.70398510
  | K-point:     189 at    0.000000    0.000000    0.500000 (in units of recip. lattice)

  Lowest unoccupied state (CBM) at    -4.30239069 eV (relative to internal zero)
  | Occupation number:      0.12245678
  | K-point:       1 at    0.000000    0.000000    0.000000 (in units of recip. lattice)

  ESTIMATED overall HOMO-LUMO gap:      1.24514525 eV between HOMO at k-point 189 and LUMO at k-point 1
  | This appears to be an indirect band gap.
  | Smallest direct gap :      4.58305962 eV for k_point 1 at    0.000000    0.000000    0.000000 (in units of recip. lattice)
  However, this system has fractional occupation numbers. Since we use a finite k-point grid,
  this material is metallic within the approximate finite broadening function (occupation_type)
  applied to determine the occupation numbers.

  Total energy components:
  | Sum of eigenvalues            :          -8.39971043 Ha        -228.56775007 eV
  | XC energy correction          :          -2.80060209 Ha         -76.20826018 eV
  | XC potential correction       :           3.57289142 Ha          97.22332234 eV
  | Free-atom electrostatic energy:          -7.06590546 Ha        -192.27307037 eV
  | Hartree energy correction     :          -0.02049427 Ha          -0.55767749 eV
  | Entropy correction            :          -0.00123659 Ha          -0.03364924 eV
  | ---------------------------
  | Total energy                  :         -14.71382082 Ha        -400.38343578 eV
  | Total energy, T -> 0          :         -14.71505741 Ha        -400.41708502 eV  <-- do not rely on this value for anything but (periodic) metals
  | Electronic free energy        :         -14.71629399 Ha        -400.45073426 eV

  Derived energy quantities:
  | Kinetic energy                :          14.64969565 Ha         398.63850127 eV
  | Electrostatic energy          :         -26.56291439 Ha        -722.81367687 eV
  | Energy correction for multipole
  | error in Hartree potential    :           0.00001171 Ha           0.00031869 eV
  | Sum of eigenvalues per atom                           :        -228.56775007 eV
  | Total energy (T->0) per atom                          :        -400.41708502 eV  <-- do not rely on this value for anything but (periodic) metals
  | Electronic free energy per atom                       :        -400.45073426 eV
  Evaluating new KS density using the density matrix
  Evaluating density matrix
  Time summed over all CPUs for getting density from density matrix: real work        0.259 s, elapsed        0.379 s
  Integration grid: deviation in total charge (<rho> - N_e) =  -5.551115E-14

  Self-consistency convergence accuracy:
  | Change of charge density      :  0.1072E+00
  | Change of sum of eigenvalues  :  0.5672E+00 eV
  | Change of total energy        :  0.2324E-01 eV


------------------------------------------------------------
  End self-consistency iteration #     1       :  max(cpu_time)    wall_clock(cpu1)
  | Time for this iteration                    :        0.022 s           0.023 s
  | Charge density update                      :        0.004 s           0.003 s
  | Density mixing & preconditioning           :        0.004 s           0.003 s
  | Hartree multipole update                   :        0.002 s           0.003 s
  | Hartree multipole summation                :        0.007 s           0.008 s
  | Integration                                :        0.002 s           0.002 s
[...]
  |   Average:        1.137 MB
  | Largest tracked array allocation so far:
  |   Minimum:        0.364 MB (gradient_basis_wave on task  29)
  |   Maximum:        0.473 MB (gradient_basis_wave on task   5)
  |   Average:        0.426 MB
  Note:  These values currently only include a subset of arrays which are explicitly tracked.
  The "true" memory usage will be greater.
------------------------------------------------------------

------------------------------------------------------------
          Begin self-consistency iteration #   16

  Date     :  20220323, Time     :  133700.875
------------------------------------------------------------
  Pulay mixing of updated and previous charge densities.
  Renormalizing the density to the exact electron count on the 3D integration grid.
  | Formal number of electrons (from input files) :       4.0000000000
  | Integrated number of electrons on 3D grid     :       4.0000000162
  | Charge integration error                      :       0.0000000162
  | Normalization factor for density and gradient :       0.9999999959

  Evaluating partitioned Hartree potential by multipole expansion.
  | Original multipole sum: apparent total charge =   0.526152E-16
  | Sum of charges compensated after spline to logarithmic grids =   0.469004E-06
  | Analytical far-field extrapolation by fixed multipoles:
  | Hartree multipole sum: apparent total charge =  -0.000000E+00
  Summing up the Hartree potential.
  Time summed over all CPUs for potential: real work        0.713 s, elapsed        0.932 s
  | RMS charge density error from multipole expansion :   0.597576E-03
  | Average real-space part of the electrostatic potential :      0.03663962 eV

  Integrating Hamiltonian matrix: batch-based integration.
  Time summed over all CPUs for integration: real work        0.142 s, elapsed        0.197 s => Consider using load balancing!

  Updating Kohn-Sham eigenvalues and eigenvectors using ELSI and the (modified) LAPACK eigensolver.
  Starting LAPACK eigensolver
  Finished Cholesky decomposition
  | Time :     0.000 s
  Finished transformation to standard eigenproblem
  | Time :     0.000 s
  Finished solving standard eigenproblem
  | Time :     0.000 s
  Finished back-transformation of eigenvectors
  | Time :     0.000 s

  Obtaining occupation numbers and chemical potential using ELSI.
  | Chemical potential (Fermi level):    -3.51420445 eV
  What follows are estimated values for band gap, HOMO, LUMO, etc.
  | They are estimated on a discrete k-point grid and not necessarily exact.
  | For converged numbers, create a DOS and/or band structure plot on a denser k-grid.

  Highest occupied state (VBM) at     -3.60448224 eV (relative to internal zero)
  | Occupation number:      1.14892975
  | K-point:     189 at    0.000000    0.000000    0.500000 (in units of recip. lattice)

  Lowest unoccupied state (CBM) at    -3.07124434 eV (relative to internal zero)
  | Occupation number:      0.35692744
  | K-point:       1 at    0.000000    0.000000    0.000000 (in units of recip. lattice)

  ESTIMATED overall HOMO-LUMO gap:      0.53323789 eV between HOMO at k-point 189 and LUMO at k-point 1
  | This appears to be an indirect band gap.
  | Smallest direct gap :      4.20574754 eV for k_point 1 at    0.000000    0.000000    0.000000 (in units of recip. lattice)
  However, this system has fractional occupation numbers. Since we use a finite k-point grid,
  this material is metallic within the approximate finite broadening function (occupation_type)
  applied to determine the occupation numbers.

  Total energy components:
  | Sum of eigenvalues            :          -8.09534061 Ha        -220.28542600 eV
  | XC energy correction          :          -2.83475557 Ha         -77.13762378 eV
  | XC potential correction       :           3.61614050 Ha          98.40018944 eV
  | Free-atom electrostatic energy:          -7.06590546 Ha        -192.27307037 eV
  | Hartree energy correction     :          -0.32264205 Ha          -8.77953683 eV
  | Entropy correction            :          -0.00292711 Ha          -0.07965080 eV
  | ---------------------------
  | Total energy                  :         -14.70250319 Ha        -400.07546754 eV
  | Total energy, T -> 0          :         -14.70543031 Ha        -400.15511834 eV  <-- do not rely on this value for anything but (periodic) metals
  | Electronic free energy        :         -14.70835742 Ha        -400.23476913 eV

  Derived energy quantities:
  | Kinetic energy                :          14.64240802 Ha         398.44019462 eV
  | Electrostatic energy          :         -26.51015564 Ha        -721.37803838 eV
  | Energy correction for multipole
  | error in Hartree potential    :           0.00027106 Ha           0.00737594 eV
  | Sum of eigenvalues per atom                           :        -220.28542600 eV
  | Total energy (T->0) per atom                          :        -400.15511834 eV  <-- do not rely on this value for anything but (periodic) metals
  | Electronic free energy per atom                       :        -400.23476913 eV
  Evaluating new KS density using the density matrix
  Evaluating density matrix
  Time summed over all CPUs for getting density from density matrix: real work        0.246 s, elapsed        0.359 s
  
  Evaluating density-matrix-based force terms: batch-based integration
  Evaluating density matrix
  Evaluating density matrix
  Integration grid: deviation in total charge (<rho> - N_e) =   8.348877E-14

  atomic forces [eV/Ang]:
  -----------------------
  atom #    1
   Hellmann-Feynman              :  0.108781E-09 -0.118901E-09 -0.430135E-12
   Ionic forces                  :  0.000000E+00  0.000000E+00  0.000000E+00
   Multipole                     :  0.129623E-13 -0.103448E-13  0.151018E-14
   Hartree pot. SCF incomplete   : -0.901146E-12  0.174825E-11  0.116988E-12
   Pulay + GGA                   : -0.109370E-09  0.115581E-09 -0.763221E-12
   ----------------------------------------------------------------
   Total forces(   1)            : -0.147701E-11 -0.158208E-11 -0.107486E-11


  Self-consistency convergence accuracy:
  | Change of charge density      :  0.1346E-06
  | Change of sum of eigenvalues  : -0.5303E-05 eV
  | Change of total energy        : -0.6630E-07 eV
  | Change of forces              :  0.2417E-11 eV/A

  Writing Kohn-Sham eigenvalues.
  K-point:       1 at    0.000000    0.000000    0.000000 (in units of recip. lattice)

  State    Occupation    Eigenvalue [Ha]    Eigenvalue [eV]
      1       2.00000          -3.840522         -104.50593
      2       2.00000          -0.267425           -7.27699
      3       0.35693          -0.112866           -3.07124
      4       0.35693          -0.112866           -3.07124

  What follows are estimated values for band gap, HOMO, LUMO, etc.
  | They are estimated on a discrete k-point grid and not necessarily exact.
  | For converged numbers, create a DOS and/or band structure plot on a denser k-grid.

  Highest occupied state (VBM) at     -3.60448224 eV (relative to internal zero)
  | Occupation number:      1.14892975
  | K-point:     189 at    0.000000    0.000000    0.500000 (in units of recip. lattice)

  Lowest unoccupied state (CBM) at    -3.07124434 eV (relative to internal zero)
  | Occupation number:      0.35692744
  | K-point:       1 at    0.000000    0.000000    0.000000 (in units of recip. lattice)

  ESTIMATED overall HOMO-LUMO gap:      0.53323789 eV between HOMO at k-point 189 and LUMO at k-point 1
  | This appears to be an indirect band gap.
  | Smallest direct gap :      4.20574754 eV for k_point 1 at    0.000000    0.000000    0.000000 (in units of recip. lattice)
  However, this system has fractional occupation numbers. Since we use a finite k-point grid,
  this material is metallic within the approximate finite broadening function (occupation_type)
  applied to determine the occupation numbers.
  | Chemical Potential                          :    -3.51420445 eV

  Self-consistency cycle converged.


------------------------------------------------------------
  End self-consistency iteration #    16       :  max(cpu_time)    wall_clock(cpu1)
  | Time for this iteration                    :        0.052 s           0.054 s
  | Charge density & force component update    :        0.024 s           0.024 s
  | Density mixing                             :        0.001 s           0.000 s
  | Hartree multipole update                   :        0.002 s           0.002 s
  | Hartree multipole summation                :        0.015 s           0.015 s
  | Hartree pot. SCF incomplete forces         :        0.007 s           0.007 s
  | Integration                                :        0.002 s           0.002 s
  | Solution of K.-S. eqns.                    :        0.002 s           0.002 s
  | Total energy evaluation                    :        0.000 s           0.000 s

  Partial memory accounting:
  | Current value for overall tracked memory usage:
  |   Minimum:        0.087 MB (on task   0)
  |   Maximum:        0.088 MB (on task   1)
  |   Average:        0.088 MB
  | Peak value for overall tracked memory usage:
  |   Minimum:        2.657 MB (on task  29 after allocating d_wave)
  |   Maximum:        3.481 MB (on task   5 after allocating d_wave)
  |   Average:        3.125 MB
  | Largest tracked array allocation so far:
  |   Minimum:        0.727 MB (hessian_basis_wave on task  29)
  |   Maximum:        0.945 MB (hessian_basis_wave on task   5)
  |   Average:        0.852 MB
  Note:  These values currently only include a subset of arrays which are explicitly tracked.
  The "true" memory usage will be greater.
------------------------------------------------------------
  Removing unitary transformations (pure translations, rotations) from forces on atoms.
  Atomic forces before filtering:
  | Net force on center of mass :  -0.147701E-11 -0.158208E-11 -0.107486E-11 eV/A
  Atomic forces after filtering:
  | Net force on center of mass :   0.000000E+00  0.000000E+00  0.000000E+00 eV/A

  Energy and forces in a compact form:
  | Total energy uncorrected      :         -0.400075467540210E+03 eV
  | Total energy corrected        :         -0.400155118337489E+03 eV  <-- do not rely on this value for anything but (periodic) metals
  | Electronic free energy        :         -0.400234769134768E+03 eV
  Total atomic forces (unitary forces cleaned) [eV/Ang]:
  |    1          0.000000000000000E+00          0.000000000000000E+00          0.000000000000000E+00

  Calculating total density of states ...
  | Chemical potential is  -3.514204 eV.
  | writing DOS (shifted by electron chemical potential) to file KS_DOS_total_tetrahedron.dat
  | writing DOS (raw data) to file KS_DOS_total_raw_tetrahedron.dat
  ------------------------------------ 
  Start decomposition of the XC Energy 
  ------------------------------------ 
  X and C from original XC functional choice 
  Hartree-Fock Energy :          0.000000000 Ha              0.000000000 eV
  X Energy            :         -2.728402391 Ha            -74.243606520 eV
  C Energy            :         -0.106353180 Ha             -2.894017263 eV
  Total XC Energy     :         -2.834755570 Ha            -77.137623783 eV
  ------------------------------------ 
  LDA X and C from self-consistent density 
  X Energy LDA        :         -2.395385415 Ha            -65.181753562 eV
  C Energy LDA        :         -0.234188030 Ha             -6.372580524 eV
  ------------------------------------ 
  End decomposition of the XC Energy 
  ------------------------------------ 

------------------------------------------------------------

  -------------------------------------------------------------------
  Writing the requested band structure output (LAPACK version):
  -------------------------------------------------------------------

  Integrating Hamiltonian matrix: batch-based integration.
  Time summed over all CPUs for integration: real work        0.147 s, elapsed        0.205 s => Consider using load balancing!

  Treating all  101 k-points in band plot segment #   1:


  "Band gap" along reciprocal space direction number:    1
  | Lowest unoccupied state:      -3.07124434 eV
  | Highest occupied state :      -3.60448224 eV
  | Energy difference      :       0.53323789 eV

  "Band gap" of total set of bands:
  | Lowest unoccupied state:      -3.07124434 eV
  | Highest occupied state :      -3.60448224 eV
  | Energy difference      :       0.53323789 eV


  Band Structure                                          :  max(cpu_time) wall_clock(cpu1)
  | Total Time                                            :          0.004            0.092
------------------------------------------------------------

------------------------------------------------------------------------------
  Final output of selected total energy values:

  The following output summarizes some interesting total energy values
  at the end of a run (AFTER all relaxation, molecular dynamics, etc.).

  | Total energy of the DFT / Hartree-Fock s.c.f. calculation      :           -400.075467540 eV
  | Final zero-broadening corrected energy (caution - metals only) :           -400.155118337 eV
  | For reference only, the value of 1 Hartree used in FHI-aims is :             27.211384500 eV
  | For reference only, the overall average (free atom contribution
  | + realspace contribution) of the electrostatic potential after
  | s.c.f. convergence is                                          :             -0.149427722 eV

  Before relying on these values, please be sure to understand exactly which
  total energy value is referred to by a given number. Different objects may
  all carry the same name 'total energy'. Definitions:

  Total energy of the DFT / Hartree-Fock s.c.f. calculation:
  | Note that this energy does not include ANY quantities calculated after the
  | s.c.f. cycle, in particular not ANY RPA, MP2, etc. many-body perturbation terms.

  Final zero-broadening corrected energy:
  | For metallic systems only, a broadening of the occupation numbers at the Fermi
  | level can be extrapolated back to zero broadening by an electron-gas inspired
  | formula. For all systems that are not real metals, this value can be
  | meaningless and should be avoided.

------------------------------------------------------------------------------
  Methods described in the following list of references were used in this FHI-aims run.
  If you publish the results, please make sure to cite these reference if they apply.
  FHI-aims is an academic code, and for our developers (often, Ph.D. students
  and postdocs), scientific credit in the community is essential.
  Thank you for helping us!

  For any use of FHI-aims, please cite:

    Volker Blum, Ralf Gehrke, Felix Hanke, Paula Havu, Ville Havu,
    Xinguo Ren, Karsten Reuter, and Matthias Scheffler
    'Ab initio molecular simulations with numeric atom-centered orbitals'
    Computer Physics Communications 180, 2175-2196 (2009)
    http://dx.doi.org/10.1016/j.cpc.2009.06.022


  The provided symmetry information was generated with SPGlib:

    Atsushi Togo, Yusuke Seto, Dimitar Pashov
    SPGlib 1.7.3 obtained from http://spglib.sourceforge.net
    Copyright (C) 2008 Atsushi Togo


  The ELSI infrastructure was used in your run to solve the Kohn-Sham electronic structure.
  Please check out http://elsi-interchange.org to learn more.
  If scalability is important for your project, please acknowledge ELSI by citing:

    V. W-z. Yu, F. Corsetti, A. Garcia, W. P. Huhn, M. Jacquelin, W. Jia,
    B. Lange, L. Lin, J. Lu, W. Mi, A. Seifitokaldani, A. Vazquez-Mayagoitia,
    C. Yang, H. Yang, and V. Blum
    'ELSI: A unified software interface for Kohn-Sham electronic structure solvers'
    Computer Physics Communications 222, 267-285 (2018).
    http://dx.doi.org/10.1016/j.cpc.2017.09.007


  For the real-space grid partitioning and parallelization used in this calculation, please cite:

    Ville Havu, Volker Blum, Paula Havu, and Matthias Scheffler,
    'Efficient O(N) integration for all-electron electronic structure calculation'
    'using numerically tabulated basis functions'
    Journal of Computational Physics 228, 8367-8379 (2009).
    http://dx.doi.org/10.1016/j.jcp.2009.08.008


  The high-level electronic structure method used in your calculation
  employed our efficient localized resolution of identity for the Coulomb operator.
  Some calculations, especially large-scale hybrid density functional theory,
  are only possible thanks to this development. For this feature, please cite:

    Arvid Ihrig, Juergen Wieferink, Igor Ying Zhang, Matti Ropo, Xinguo Ren,
    Patrick Rinke, Matthias Scheffler, and Volker Blum,
    'Accurate localized resolution of identity approach for linear-scaling
    hybrid density functionals and for many-body perturbation theory'
    New Journal of Physics 117, 093020 (2015).
    http://dx.doi.org/10.1088/1367-2630/17/9/093020

  Of course, there are many other important community references, e.g., those cited in the
  above references. Our list is limited to references that describe implementations in the
  FHI-aims code. The reason is purely practical (length of this list) - please credit others as well.

------------------------------------------------------------
          Leaving FHI-aims.
          Date     :  20220323, Time     :  133701.303

          Computational steps:
          | Number of self-consistency cycles          :           16
          | Number of SCF (re)initializations          :            1

          Detailed time accounting                     :  max(cpu_time)    wall_clock(cpu1)
          | Total time                                 :        1.043 s           1.108 s
          | Preparation time                           :        0.132 s           0.133 s
          | Boundary condition initalization           :        0.020 s           0.020 s
          | Grid partitioning                          :        0.028 s           0.029 s
          | Preloading free-atom quantities on grid    :        0.005 s           0.006 s
          | Free-atom superposition energy             :        0.001 s           0.001 s
          | Total time for integrations                :        0.042 s           0.041 s
          | Total time for solution of K.-S. equations :        0.036 s           0.039 s
          | Total time for density & force components  :        0.083 s           0.085 s
          | Total time for mixing & preconditioning    :        0.043 s           0.037 s
          | Total time for Hartree multipole update    :        0.024 s           0.026 s
          | Total time for Hartree multipole sum       :        0.102 s           0.105 s
          | Total time for total energy evaluation     :        0.004 s           0.003 s
          | Total time NSC force correction            :        0.007 s           0.007 s
          | Total time for band structures, DOS        :        0.025 s           0.368 s

          Partial memory accounting:
          | Residual value for overall tracked memory usage across tasks:     0.000000 MB (should be 0.000000 MB)
          | Peak values for overall tracked memory usage:
          |   Minimum:        2.657 MB (on task  29 after allocating d_wave)
          |   Maximum:        3.481 MB (on task   5 after allocating d_wave)
          |   Average:        3.125 MB
          | Largest tracked array allocation:
          |   Minimum:        0.727 MB (hessian_basis_wave on task  29)
          |   Maximum:        0.945 MB (hessian_basis_wave on task   5)
          |   Average:        0.852 MB
          Note:  These values currently only include a subset of arrays which are explicitly tracked.
          The "true" memory usage will be greater.

          Have a nice day.
------------------------------------------------------------
