 +-------------------------------------------------+
 |                                                 |
 |      CCC   AA    SSS  TTTTT  EEEEE  PPPP        |
 |     C     A  A  S       T    E      P   P       |
 |     C     AAAA   SS     T    EEE    PPPP        |
 |     C     A  A     S    T    E      P           |
 |      CCC  A  A  SSS     T    EEEEE  P           |
 |                                                 |
 +-------------------------------------------------+
 |                                                 |
 | Welcome to Academic Release CASTEP version 22.1 |          
 | Ab Initio Total Energy Program                  |
 |                                                 |
 | Authors:                                        |
 | M. Segall, M. Probert, C. Pickard, P. Hasnip,   |
 | S. Clark, K. Refson, J. R. Yates, M. Payne      |
 |                                                 |
 | Contributors:                                   |
 | P. Lindan, P. Haynes, J. White, V. Milman,      |
 | N. Govind, M. Gibson, P. Tulip, V. Cocula,      |
 | B. Montanari, D. Quigley, M. Glover,            |
 | L. Bernasconi, A. Perlov, M. Plummer,           |
 | E. McNellis, J. Meyer, J. Gale, D. Jochym       |
 | J. Aarons, B. Walker, R. Gillen, D. Jones       |
 | T. Green, I. J. Bush, C. J. Armstrong,          |
 | E. J. Higgins, E. L. Brown, M. S. McFly,        |
 | J. Wilkins, B-C. Shih, P. J. P. Byrne,          |
 | R. J. Maurer, J. C. Womack, J. Dziedzic,        |
 | A. Bartok-Partay, L. LeBlanc, T. K. Stenczel,   |
 | J. Kermode, S. Sturniolo                        |
 |                                                 |
 | Copyright (c) 2000 - 2021                       |
 |                                                 |
 |     Distributed under license from Cambridge    |
 |     Enterprise for academic use only.           |
 |                                                 |
 | Please cite                                     |
 |                                                 |
 |     "First principles methods using CASTEP"     |
 |                                                 |
 |         Zeitschrift fuer Kristallographie       |
 |           220(5-6) pp. 567-570 (2005)           |
 |                                                 |
 | S. J. Clark, M. D. Segall, C. J. Pickard,       |
 | P. J. Hasnip, M. J. Probert, K. Refson,         |
 | M. C. Payne                                     |
 |                                                 |
 |       in all publications arising from          |
 |              your use of CASTEP                 |
 |                                                 |
 +-------------------------------------------------+
 |                                                 |
 |              http://www.castep.org              |
 |                                                 |
 +-------------------------------------------------+



 Compiled for linux_x86_64_gfortran10 on Thu, 07 Oct 2021 22:56:02 +0100
 from code version f361359b0+  default  Mon Sep 27 15:13:22 2021 +0100
 Compiler: GNU Fortran 10.2.0; Optimisation: fast
 MATHLIBS: openblas (LAPACK version 3.9.0)
 FFT Lib : fftw3 version fftw-3.3.8-sse2-avx-avx2-avx2_128
 Fundamental constants values: CODATA 2014

 Run started: Thu, 24 Mar 2022 13:44:28 +0000

 Atomic calculation performed for Be: 1s2 2s2

 Converged in 44 iterations to an ae energy of -399.040 eV

   ============================================================                
   | Pseudopotential Report - Date of generation 24-03-2022   |                
   ------------------------------------------------------------                
   | Element: Be Ionic charge:  4.00 Level of theory: BLYP    |                
   | Atomic Solver: Koelling-Harmon                           |                
   |                                                          |                
   |               Reference Electronic Structure             |                
   |         Orbital         Occupation         Energy        |                
   |            1s              2.000           -3.917        |                
   |            2s              2.000           -0.201        |                
   |                                                          |                
   |                 Pseudopotential Definition               |                
   |        Beta     l      e      Rc     scheme   norm       |                
   |          1      0   -3.917   0.996     qc      0         |                
   |          2      0   -0.201   0.996     qc      0         |                
   |          3      0    0.250   0.996     qc      0         |                
   |          4      1    0.000   0.996     qc      0         |                
   |          5      1    0.250   0.996     qc      0         |                
   |         loc     2    0.000   0.996     pn      0         |                
   |                                                          |                
   | Augmentation charge Rinner = 0.702                       |                
   | No partial core correction                               |                
   ------------------------------------------------------------                
   | "2|1.0|14|16|18|10U:20:21(qc=7)"                         |                
   ------------------------------------------------------------                
   |      Author: Chris J. Pickard, Cambridge University      |                
   ============================================================                

 Pseudo atomic calculation performed for Be 1s2 2s2

 Converged in 25 iterations to a total energy of -389.3029 eV
 Calculation parallelised over 250 processes.
 Data is distributed by k-point(250-way)

 ************************************ Title ************************************
 

 ***************************** General Parameters ******************************
  
 output verbosity                               : normal  (1)
 write checkpoint data to                       : Be_nanowire.check
 type of calculation                            : geometry optimization
 stress calculation                             : off
 density difference calculation                 : off
 electron localisation func (ELF) calculation   : off
 Hirshfeld analysis                             : off
 polarisation (Berry phase) analysis            : off
 molecular orbital projected DOS                : off
 deltaSCF calculation                           : off
 unlimited duration calculation
 timing information                             : on
 memory usage estimate                          : on
 write extra output files                       : on
 write final potential to formatted file        : off
 write final density to formatted file          : off
 write BibTeX reference list                    : on
 write OTFG pseudopotential files               : on
 write electrostatic potential file             : on
 write bands file                               : on
 checkpoint writing                             : both castep_bin and check files
  
 output         length unit                     : A
 output           mass unit                     : amu
 output           time unit                     : ps
 output         charge unit                     : e
 output           spin unit                     : hbar/2
 output         energy unit                     : eV
 output          force unit                     : eV/A
 output       velocity unit                     : A/ps
 output       pressure unit                     : GPa
 output     inv_length unit                     : 1/A
 output      frequency unit                     : cm-1
 output force constant unit                     : eV/A**2
 output         volume unit                     : A**3
 output   IR intensity unit                     : (D/A)**2/amu
 output         dipole unit                     : D
 output         efield unit                     : eV/A/e
 output        entropy unit                     : J/mol/K
 output    efield chi2 unit                     : pm/V
  
 wavefunctions paging                           : none
 random number generator seed                   : randomised (134428442)
 data distribution                              : k-point only
 optimization strategy                          : maximize speed(+++)

 *********************** Exchange-Correlation Parameters ***********************
  
 using functional                               : BLYP
 relativistic treatment                         : Koelling-Harmon
 DFT+D: Semi-empirical dispersion correction    : off

 ************************* Pseudopotential Parameters **************************
  
 pseudopotential representation                 : reciprocal space
 <beta|phi> representation                      : reciprocal space
 spin-orbit coupling                            : off

 **************************** Basis Set Parameters *****************************
  
 plane wave basis set cut-off                   :  1000.0000   eV
 size of standard grid                          :     2.0000
 size of   fine   gmax                          :    32.4018   1/A
 finite basis set correction                    : automatic
 number of sample energies                      :          3
           sample  spacing                      :     5.0000   eV

 **************************** Electronic Parameters ****************************
  
 number of  electrons                           :  4.000    
 net charge of system                           :  0.000    
 treating system as non-spin-polarized
 number of bands                                :         37

 ********************* Electronic Minimization Parameters **********************
  
 Method: Treating system as metallic with density mixing treatment of electrons,
         and number of  SD  steps               :          1
         and number of  CG  steps               :          4
  
 total energy / atom convergence tol.           : 0.1000E-10   eV
 eigen-energy convergence tolerance             : 0.2703E-12   eV
 max force / atom convergence tol.              : ignored
 convergence tolerance window                   :          3   cycles
 max. number of SCF cycles                      :        200
 number of fixed-spin iterations                :         10
 smearing scheme                                : Gaussian
 smearing width                                 : 0.5000E-01   eV
 Fermi energy convergence tolerance             : 0.2721E-13   eV
 periodic dipole correction                     : NONE

 ************************** Density Mixing Parameters **************************
  
 density-mixing scheme                          : Pulay
 max. length of mixing history                  :         20
 charge density mixing amplitude                : 0.8000    
 cut-off energy for mixing                      :  1000.       eV

 *********************** Population Analysis Parameters ************************
  
 Population analysis with cutoff                :  3.000       A
 Population analysis output                     : summary and pdos components

 ********************** Geometry Optimization Parameters ***********************
  
 optimization method                            : LBFGS
 max. no. of LBFGS updates                      : unbounded
 variable cell method                           : fixed basis quality
 max. number of steps                           :         30
 estimated bulk modulus                         :  500.0       GPa
 estimated <frequency>                          :  1668.       cm-1
 geom line minimiser                            : on
 with line minimiser tolerance                  :     0.4000
 total energy convergence tolerance             : 0.2000E-04   eV/atom
        max ionic |force| tolerance             : 0.5000E-01   eV/A
 max ionic |displacement| tolerance             : 0.1000E-02   A
   max |stress component| tolerance             : 0.1000       GPa
 convergence tolerance window                   :          2   steps
 backup results every                           :          5   steps
 write geom trajectory file                     : on

 *******************************************************************************
  

                           -------------------------------
                                      Unit Cell
                           -------------------------------
        Real Lattice(A)                      Reciprocal Lattice(1/A)
    19.1230500    -0.7864580    -0.0047370        0.327993637  -0.013922938   0.000679655
     0.7854600    18.5034760    -0.0046120        0.013940789   0.338976058  -0.000004143
    -0.0050600     0.0002380     2.4467730        0.000661279   0.000611992   2.567949094

                       Lattice parameters(A)       Cell Angles
                    a =     19.139216          alpha =   90.013725
                    b =     18.520140          beta  =   90.132799
                    c =      2.446778          gamma =   89.924318

                       Current cell volume =           867.284252       A**3
                                   density =             0.010391   AMU/A**3
                                           =             0.017255     g/cm^3

                           -------------------------------
                                     Cell Contents
                           -------------------------------
                         Total number of ions in cell =    1
                      Total number of species in cell =    1
                        Max number of any one species =    1

            xxxxxxxxxxxxxxxxxxxxxxxxxxxxxxxxxxxxxxxxxxxxxxxxxxxxxxxxxxxx
            x  Element    Atom        Fractional coordinates of atoms  x
            x            Number           u          v          w      x
            x----------------------------------------------------------x
            x  Be           1         0.457604   0.540465   0.378835   x 
            xxxxxxxxxxxxxxxxxxxxxxxxxxxxxxxxxxxxxxxxxxxxxxxxxxxxxxxxxxxx


                         No user defined ionic velocities

                           -------------------------------
                                   Details of Species
                           -------------------------------

                               Mass of species in AMU
                                    Be    9.0121870

                          Electric Quadrupole Moment (Barn)
                                    Be    0.0528800 Isotope  9

                          Files used for pseudopotentials:
                                    Be 2|1.0|14|16|18|10U:20:21(qc=7)

                           -------------------------------
                              k-Points For BZ Sampling
                           -------------------------------
                       MP grid size for SCF calculation is  1  1500
                            with an offset of   0.000  0.000  0.000
                       Number of kpoints used =           250

                           -------------------------------
                               Symmetry and Constraints
                           -------------------------------

                      Maximum deviation from symmetry =  0.00000         ANG

                      Number of symmetry operations   =           1
                      Number of ionic constraints     =           3
                      Point group of crystal =     1: C1, 1, 1
                      Space group of crystal =     2: P-1, -P 1

             Set iprint > 1 for details on symmetry rotations/translations

                         Centre of mass is constrained
             Set iprint > 1 for details of linear ionic constraints

                         Number of cell constraints= 5
                         Cell constraints are:  0 0 3 0 0 0

                         External pressure/stress (GPa)
                          0.00000   0.00000   0.00000
                                    0.00000   0.00000
                                              0.00000
  
+---------------- MEMORY AND SCRATCH DISK ESTIMATES PER PROCESS --------------+
|                                                     Memory          Disk    |
| Baseline code, static data and system overhead      597.0 MB         0.0 MB |
| BLAS internal memory storage                          0.0 MB         0.0 MB |
| Model and support data                              994.4 MB         0.0 MB |
| Electronic energy minimisation requirements         430.5 MB         0.0 MB |
| Force calculation requirements                      118.7 MB         0.0 MB |
|                                               ----------------------------- |
| Approx. total storage required per process         2021.9 MB         0.0 MB |
|                                                                             |
| Requirements will fluctuate during execution and may exceed these estimates |
+-----------------------------------------------------------------------------+
Calculating finite basis set correction with  3 cut-off energies.
Calculating total energy with cut-off of  990.000 eV.
Calculating approximate eigenstates for fixed initial Hamiltonian
Cut-off for approx. calculation is   89.988 eV
Improving approx. states at cut-off of  494.993 eV
Resetting cut-off to  989.987 eV
------------------------------------------------------------------------ <-- SCF
SCF loop      Energy           Fermi           Energy gain       Timer   <-- SCF
                               energy          per atom          (sec)   <-- SCF
------------------------------------------------------------------------ <-- SCF
Initial  -3.87995582E+002  0.00000000E+000                        33.61  <-- SCF
      1  -3.90420927E+002 -3.69939443E+000   2.42534494E+000      56.62  <-- SCF
      2  -3.90450392E+002 -3.69940207E+000   2.94647119E-002      85.66  <-- SCF
      3  -3.90413624E+002 -3.38307042E+000  -3.67676404E-002     112.97  <-- SCF
      4  -3.90396442E+002 -3.12877009E+000  -1.71826647E-002     137.95  <-- SCF
      5  -3.90396887E+002 -3.01668959E+000   4.45529452E-004     165.45  <-- SCF
      6  -3.90395097E+002 -2.93546355E+000  -1.78994358E-003     189.92  <-- SCF
      7  -3.90389153E+002 -2.85652546E+000  -5.94457244E-003     213.82  <-- SCF
      8  -3.90387996E+002 -2.81600166E+000  -1.15714456E-003     238.87  <-- SCF
      9  -3.90389069E+002 -2.81821246E+000   1.07301716E-003     264.66  <-- SCF
     10  -3.90389897E+002 -2.81576866E+000   8.28126798E-004     289.16  <-- SCF
     11  -3.90390340E+002 -2.80113840E+000   4.43253152E-004     314.44  <-- SCF
     12  -3.90390618E+002 -2.79558605E+000   2.78206328E-004     340.31  <-- SCF
     13  -3.90390091E+002 -2.79110111E+000  -5.27230369E-004     365.43  <-- SCF
     14  -3.90389842E+002 -2.78795386E+000  -2.49272374E-004     390.56  <-- SCF
     15  -3.90390081E+002 -2.78461532E+000   2.39465234E-004     415.70  <-- SCF
     16  -3.90390361E+002 -2.78457062E+000   2.80149657E-004     440.63  <-- SCF
     17  -3.90390552E+002 -2.78483565E+000   1.90401984E-004     466.16  <-- SCF
     18  -3.90390663E+002 -2.78481548E+000   1.11268706E-004     491.69  <-- SCF
     19  -3.90390704E+002 -2.78455548E+000   4.05363524E-005     517.54  <-- SCF
     20  -3.90390610E+002 -2.78476294E+000  -9.31781616E-005     543.19  <-- SCF
     21  -3.90390563E+002 -2.78422238E+000  -4.76474351E-005     569.36  <-- SCF
     22  -3.90390603E+002 -2.78437130E+000   3.98805853E-005     596.07  <-- SCF
     23  -3.90390623E+002 -2.78422671E+000   2.02965483E-005     621.63  <-- SCF
     24  -3.90390639E+002 -2.78448836E+000   1.60538930E-005     647.75  <-- SCF
     25  -3.90390646E+002 -2.78423029E+000   7.18977324E-006     674.11  <-- SCF
     26  -3.90390637E+002 -2.78421102E+000  -9.21732344E-006     699.87  <-- SCF
     27  -3.90390627E+002 -2.78432900E+000  -9.43809255E-006     726.12  <-- SCF
     28  -3.90390613E+002 -2.78432992E+000  -1.49392269E-005     751.54  <-- SCF
     29  -3.90390606E+002 -2.78427838E+000  -6.53739926E-006     777.77  <-- SCF
     30  -3.90390604E+002 -2.78420286E+000  -2.14143325E-006     803.31  <-- SCF
     31  -3.90390603E+002 -2.78419732E+000  -8.96245924E-007     829.81  <-- SCF
     32  -3.90390603E+002 -2.78420268E+000   3.02779926E-007     856.32  <-- SCF
     33  -3.90390603E+002 -2.78420570E+000  -3.18821376E-007     880.86  <-- SCF
     34  -3.90390603E+002 -2.78420822E+000  -1.66487679E-007     907.21  <-- SCF
     35  -3.90390604E+002 -2.78420397E+000   7.78206165E-007     932.37  <-- SCF
     36  -3.90390604E+002 -2.78420022E+000   6.59053589E-008     958.31  <-- SCF
     37  -3.90390604E+002 -2.78420198E+000   3.45878859E-007     983.44  <-- SCF
     38  -3.90390604E+002 -2.78420389E+000   2.20305468E-007    1010.32  <-- SCF
     39  -3.90390604E+002 -2.78420642E+000   8.61296147E-008    1036.26  <-- SCF
     40  -3.90390604E+002 -2.78420507E+000  -4.10532093E-008    1061.18  <-- SCF
     41  -3.90390604E+002 -2.78420672E+000   8.73317592E-008    1086.00  <-- SCF
     42  -3.90390604E+002 -2.78420654E+000  -9.14945530E-008    1109.74  <-- SCF
     43  -3.90390604E+002 -2.78420585E+000   4.34138981E-008    1134.85  <-- SCF
     44  -3.90390604E+002 -2.78420655E+000  -8.87374997E-008    1159.89  <-- SCF
     45  -3.90390604E+002 -2.78420620E+000  -1.93587312E-008    1185.59  <-- SCF
     46  -3.90390604E+002 -2.78420642E+000   6.84705138E-009    1210.14  <-- SCF
     47  -3.90390604E+002 -2.78420625E+000  -1.85422204E-008    1234.53  <-- SCF
     48  -3.90390604E+002 -2.78420627E+000  -1.43327329E-008    1258.01  <-- SCF
     49  -3.90390604E+002 -2.78420636E+000   9.66742633E-014    1286.29  <-- SCF
     50  -3.90390604E+002 -2.78420638E+000  -6.86387270E-012    1311.37  <-- SCF
------------------------------------------------------------------------ <-- SCF
 
Final energy, E             =  -390.3906041488     eV
Final free energy (E-TS)    =  -390.3906041488     eV
(energies not corrected for finite basis set)
 
NB est. 0K energy (E-0.5TS)      =  -390.3906041488     eV
 
Calculating total energy with cut-off of  995.000 eV.
------------------------------------------------------------------------ <-- SCF
SCF loop      Energy           Fermi           Energy gain       Timer   <-- SCF
                               energy          per atom          (sec)   <-- SCF
------------------------------------------------------------------------ <-- SCF
Initial  -3.90390604E+002  0.00000000E+000                      1321.53  <-- SCF
      1  -3.90390652E+002 -2.78420715E+000   4.73998619E-005    1340.83  <-- SCF
      2  -3.90390652E+002 -2.78420715E+000   1.12441836E-009    1368.12  <-- SCF
      3  -3.90390652E+002 -2.78420128E+000   4.55086361E-008    1393.09  <-- SCF
      4  -3.90390652E+002 -2.78420880E+000   4.27126230E-008    1418.05  <-- SCF
      5  -3.90390652E+002 -2.78421142E+000   1.44935989E-008    1442.69  <-- SCF
      6  -3.90390652E+002 -2.78421007E+000   8.09045642E-008    1466.76  <-- SCF
      7  -3.90390652E+002 -2.78421104E+000   7.61657851E-009    1492.65  <-- SCF
      8  -3.90390652E+002 -2.78421029E+000  -7.44391828E-012    1520.89  <-- SCF
      9  -3.90390652E+002 -2.78421061E+000  -6.38050138E-012    1547.43  <-- SCF
     10  -3.90390652E+002 -2.78421038E+000   3.93377245E-008    1570.24  <-- SCF
     11  -3.90390652E+002 -2.78421056E+000  -1.58671468E-009    1595.50  <-- SCF
     12  -3.90390652E+002 -2.78421049E+000   4.56495872E-009    1618.32  <-- SCF
     13  -3.90390652E+002 -2.78421057E+000  -2.72466744E-008    1642.44  <-- SCF
     14  -3.90390652E+002 -2.78421042E+000  -6.23956964E-008    1666.14  <-- SCF
     15  -3.90390652E+002 -2.78421044E+000  -4.83371317E-013    1693.94  <-- SCF
     16  -3.90390652E+002 -2.78421045E+000  -4.83371317E-013    1718.34  <-- SCF
------------------------------------------------------------------------ <-- SCF
 
Final energy, E             =  -390.3906517041     eV
Final free energy (E-TS)    =  -390.3906517041     eV
(energies not corrected for finite basis set)
 
NB est. 0K energy (E-0.5TS)      =  -390.3906517041     eV
 
Calculating total energy with cut-off of 1000.000 eV.
------------------------------------------------------------------------ <-- SCF
SCF loop      Energy           Fermi           Energy gain       Timer   <-- SCF
                               energy          per atom          (sec)   <-- SCF
------------------------------------------------------------------------ <-- SCF
Initial  -3.90390652E+002  0.00000000E+000                      1728.35  <-- SCF
      1  -3.90390696E+002 -2.78421109E+000   4.47411534E-005    1747.19  <-- SCF
      2  -3.90390696E+002 -2.78421109E+000   1.02977425E-009    1774.53  <-- SCF
      3  -3.90390697E+002 -2.78420114E+000   9.73724449E-008    1799.49  <-- SCF
      4  -3.90390696E+002 -2.78420855E+000  -6.76369883E-008    1824.50  <-- SCF
      5  -3.90390697E+002 -2.78421304E+000   1.36717613E-007    1848.66  <-- SCF
      6  -3.90390697E+002 -2.78421017E+000  -2.53845347E-008    1874.57  <-- SCF
      7  -3.90390697E+002 -2.78421119E+000   4.45242987E-009    1898.41  <-- SCF
      8  -3.90390697E+002 -2.78421035E+000  -3.83690484E-009    1926.08  <-- SCF
      9  -3.90390697E+002 -2.78421068E+000  -1.16009116E-011    1952.07  <-- SCF
     10  -3.90390697E+002 -2.78421055E+000  -2.94150781E-009    1975.47  <-- SCF
     11  -3.90390697E+002 -2.78421072E+000  -6.08854511E-010    1998.82  <-- SCF
     12  -3.90390697E+002 -2.78421062E+000  -2.96219610E-009    2021.78  <-- SCF
     13  -3.90390697E+002 -2.78421074E+000  -2.80355364E-012    2049.17  <-- SCF
     14  -3.90390697E+002 -2.78421071E+000  -5.32965214E-010    2073.44  <-- SCF
     15  -3.90390697E+002 -2.78421067E+000  -1.50396151E-009    2097.77  <-- SCF
     16  -3.90390697E+002 -2.78421066E+000  -1.04661491E-008    2122.35  <-- SCF
     17  -3.90390697E+002 -2.78421063E+000  -8.61532033E-009    2147.00  <-- SCF
     18  -3.90390697E+002 -2.78421063E+000  -1.18909344E-011    2174.65  <-- SCF
     19  -3.90390697E+002 -2.78421066E+000   7.86309788E-009    2198.54  <-- SCF
     20  -3.90390697E+002 -2.78421067E+000   1.25676542E-012    2226.01  <-- SCF
     21  -3.90390697E+002 -2.78421067E+000  -7.15389549E-012    2247.03  <-- SCF
------------------------------------------------------------------------ <-- SCF
 
Final energy, E             =  -390.3906965595     eV
Final free energy (E-TS)    =  -390.3906965595     eV
(energies not corrected for finite basis set)
 
NB est. 0K energy (E-0.5TS)      =  -390.3906965595     eV
 
 For future reference: finite basis dEtot/dlog(Ecut) =      -0.009103eV
 Total energy corrected for finite basis set =    -390.390696 eV
 
+---------------- MEMORY AND SCRATCH DISK ESTIMATES PER PROCESS --------------+
|                                                     Memory          Disk    |
| Model and support data                              963.1 MB         0.0 MB |
| Electronic energy minimisation requirements         430.5 MB         0.0 MB |
| Geometry minimisation requirements                  481.8 MB         0.0 MB |
|                                               ----------------------------- |
| Approx. total storage required per process         1875.4 MB         0.0 MB |
|                                                                             |
| Requirements will fluctuate during execution and may exceed these estimates |
+-----------------------------------------------------------------------------+
 

 ***************** Stress Tensor *****************
 *                                               *
 *          Cartesian components (GPa)           *
 * --------------------------------------------- *
 *             x             y             z     *
 *                                               *
 *  x     -0.010467      0.000036     -0.000972  *
 *  y      0.000036     -0.008061     -0.000031  *
 *  z     -0.000972     -0.000031      0.520429  *
 *                                               *
 *  Pressure:   -0.1673                          *
 *                                               *
 *************************************************

 *********** Constrained Stress Tensor ***********
 *                                               *
 *          Cartesian components (GPa)           *
 * --------------------------------------------- *
 *             x             y             z     *
 *                                               *
 *  x     -0.000000     -0.000000     -0.000471  *
 *  y     -0.000000      0.000000      0.000087  *
 *  z     -0.000471      0.000087      0.520429  *
 *                                               *
 *  Pressure:   -0.1735                          *
 *                                               *
 *************************************************
 LBFGS: finished iteration     0 with enthalpy= -3.90390696E+002 eV
  
 +-----------+-----------------+-----------------+------------+-----+ <-- LBFGS
 | Parameter |      value      |    tolerance    |    units   | OK? | <-- LBFGS
 +-----------+-----------------+-----------------+------------+-----+ <-- LBFGS
 |  dE/ion   |   0.000000E+000 |   2.000000E-005 |         eV | No  | <-- LBFGS
 |   Smax    |   5.204291E-001 |   1.000000E-001 |        GPa | No  | <-- LBFGS
 +-----------+-----------------+-----------------+------------+-----+ <-- LBFGS
  

================================================================================
 Starting LBFGS iteration          1 ...
================================================================================
  
 +------------+-------------+-------------+-----------------+ <-- min LBFGS
 |    Step    |   lambda    |   F.delta'  |    enthalpy     | <-- min LBFGS
 +------------+-------------+-------------+-----------------+ <-- min LBFGS
 |  previous  |    0.000000 |    0.103529 |     -390.390696 | <-- min LBFGS
 +------------+-------------+-------------+-----------------+ <-- min LBFGS
  

--------------------------------------------------------------------------------
 LBFGS: starting iteration         1 with trial guess (lambda=  1.000000)
--------------------------------------------------------------------------------

                           -------------------------------
                                      Unit Cell
                           -------------------------------
        Real Lattice(A)              Reciprocal Lattice(1/A)
    19.1230500    -0.7864580    -0.0047293        0.327993637  -0.013922938   0.000679787
     0.7854600    18.5034760    -0.0046112        0.013940789   0.338976058  -0.000004129
    -0.0050592     0.0002379     2.4459241        0.000660472   0.000612141   2.568840360

                       Lattice parameters(A)       Cell Angles
                    a =     19.139216          alpha =   90.013725
                    b =     18.520140          beta  =   90.132799
                    c =      2.445929          gamma =   89.924318

                Current cell volume =           866.983346 A**3
                            density =             0.010395 amu/A**3
                                    =             0.017261 g/cm^3

------------------------------------------------------------------------ <-- SCF
SCF loop      Energy           Fermi           Energy gain       Timer   <-- SCF
                               energy          per atom          (sec)   <-- SCF
------------------------------------------------------------------------ <-- SCF
Initial  -3.90391663E+002  0.00000000E+000                      2278.67  <-- SCF
      1  -3.90391678E+002 -2.78516491E+000   1.49332096E-005    2297.75  <-- SCF
      2  -3.90391680E+002 -2.78516492E+000   1.24446855E-006    2327.20  <-- SCF
      3  -3.90391685E+002 -2.78483353E+000   5.64015286E-006    2351.63  <-- SCF
      4  -3.90391691E+002 -2.78474860E+000   5.87853361E-006    2375.86  <-- SCF
      5  -3.90391695E+002 -2.78488251E+000   4.20817587E-006    2401.45  <-- SCF
      6  -3.90391697E+002 -2.78468835E+000   1.20416525E-006    2427.34  <-- SCF
      7  -3.90391698E+002 -2.78474292E+000   1.48388778E-006    2451.93  <-- SCF
      8  -3.90391697E+002 -2.78471722E+000  -1.31239344E-006    2475.00  <-- SCF
      9  -3.90391693E+002 -2.78474232E+000  -3.45119657E-006    2497.98  <-- SCF
     10  -3.90391688E+002 -2.78464834E+000  -5.74768693E-006    2521.86  <-- SCF
     11  -3.90391683E+002 -2.78465686E+000  -4.08257986E-006    2546.17  <-- SCF
     12  -3.90391679E+002 -2.78460716E+000  -4.62796965E-006    2571.15  <-- SCF
     13  -3.90391678E+002 -2.78458591E+000  -1.31933842E-006    2596.34  <-- SCF
     14  -3.90391679E+002 -2.78459966E+000   1.31164006E-006    2619.41  <-- SCF
     15  -3.90391680E+002 -2.78459819E+000   1.58131185E-006    2643.43  <-- SCF
     16  -3.90391681E+002 -2.78460431E+000   1.47114930E-007    2668.53  <-- SCF
     17  -3.90391680E+002 -2.78460106E+000  -5.20059683E-007    2694.34  <-- SCF
     18  -3.90391680E+002 -2.78460099E+000  -3.78572645E-007    2719.62  <-- SCF
     19  -3.90391680E+002 -2.78459690E+000  -5.99657888E-008    2743.45  <-- SCF
     20  -3.90391680E+002 -2.78459864E+000   3.35524949E-007    2769.01  <-- SCF
     21  -3.90391680E+002 -2.78459799E+000   2.27052075E-007    2792.92  <-- SCF
     22  -3.90391680E+002 -2.78459886E+000   5.12067138E-008    2818.19  <-- SCF
     23  -3.90391680E+002 -2.78459907E+000   3.32575901E-008    2844.66  <-- SCF
     24  -3.90391680E+002 -2.78459759E+000   2.21194582E-008    2868.13  <-- SCF
     25  -3.90391680E+002 -2.78459788E+000  -1.15353665E-008    2893.59  <-- SCF
     26  -3.90391680E+002 -2.78459778E+000   9.23917868E-008    2916.69  <-- SCF
     27  -3.90391680E+002 -2.78459801E+000   4.29775105E-009    2942.70  <-- SCF
     28  -3.90391680E+002 -2.78459800E+000   5.64974062E-008    2966.98  <-- SCF
     29  -3.90391680E+002 -2.78459810E+000  -2.99690216E-012    2995.36  <-- SCF
     30  -3.90391680E+002 -2.78459800E+000  -8.31949708E-009    3019.54  <-- SCF
     31  -3.90391680E+002 -2.78459815E+000  -4.79695761E-008    3042.88  <-- SCF
     32  -3.90391680E+002 -2.78459806E+000  -1.95020991E-008    3067.37  <-- SCF
     33  -3.90391680E+002 -2.78459802E+000  -8.12063812E-012    3095.53  <-- SCF
     34  -3.90391680E+002 -2.78459800E+000   6.78924017E-009    3120.28  <-- SCF
     35  -3.90391680E+002 -2.78459799E+000   3.77029627E-012    3146.07  <-- SCF
     36  -3.90391680E+002 -2.78459799E+000  -7.05722122E-012    3165.68  <-- SCF
------------------------------------------------------------------------ <-- SCF
 
Final energy, E             =  -390.3916803400     eV
Final free energy (E-TS)    =  -390.3916803400     eV
(energies not corrected for finite basis set)
 
NB est. 0K energy (E-0.5TS)      =  -390.3916803400     eV
 

 ***************** Stress Tensor *****************
 *                                               *
 *          Cartesian components (GPa)           *
 * --------------------------------------------- *
 *             x             y             z     *
 *                                               *
 *  x     -0.010286      0.000080     -0.000833  *
 *  y      0.000080     -0.007284     -0.000027  *
 *  z     -0.000833     -0.000027      0.519892  *
 *                                               *
 *  Pressure:   -0.1674                          *
 *                                               *
 *************************************************

 *********** Constrained Stress Tensor ***********
 *                                               *
 *          Cartesian components (GPa)           *
 * --------------------------------------------- *
 *             x             y             z     *
 *                                               *
 *  x     -0.000000     -0.000000     -0.000471  *
 *  y     -0.000000      0.000000      0.000087  *
 *  z     -0.000471      0.000087      0.519893  *
 *                                               *
 *  Pressure:   -0.1733                          *
 *                                               *
 *************************************************
  
 +------------+-------------+-------------+-----------------+ <-- min LBFGS
 |    Step    |   lambda    |   F.delta'  |    enthalpy     | <-- min LBFGS
 +------------+-------------+-------------+-----------------+ <-- min LBFGS
 |  previous  |    0.000000 |    0.103529 |     -390.390696 | <-- min LBFGS
 | trial step |    1.000000 |    0.103422 |     -390.391680 | <-- min LBFGS
 +------------+-------------+-------------+-----------------+ <-- min LBFGS
  
 LBFGS: finished iteration     1 with enthalpy= -3.90391680E+002 eV
  
 +-----------+-----------------+-----------------+------------+-----+ <-- LBFGS
 | Parameter |      value      |    tolerance    |    units   | OK? | <-- LBFGS
 +-----------+-----------------+-----------------+------------+-----+ <-- LBFGS
 |  dE/ion   |   9.837789E-004 |   2.000000E-005 |         eV | No  | <-- LBFGS
 |   Smax    |   5.198926E-001 |   1.000000E-001 |        GPa | No  | <-- LBFGS
 +-----------+-----------------+-----------------+------------+-----+ <-- LBFGS
  

================================================================================
 Starting LBFGS iteration          2 ...
================================================================================
  
 +------------+-------------+-------------+-----------------+ <-- min LBFGS
 |    Step    |   lambda    |   F.delta'  |    enthalpy     | <-- min LBFGS
 +------------+-------------+-------------+-----------------+ <-- min LBFGS
 |  previous  |    0.000000 |    0.103422 |     -390.391680 | <-- min LBFGS
 +------------+-------------+-------------+-----------------+ <-- min LBFGS
  

--------------------------------------------------------------------------------
 LBFGS: starting iteration         2 with trial guess (lambda=  1.000000)
--------------------------------------------------------------------------------

                           -------------------------------
                                      Unit Cell
                           -------------------------------
        Real Lattice(A)              Reciprocal Lattice(1/A)
    19.1230500    -0.7864580    -0.0047216        0.327993636  -0.013922938   0.000679919
     0.7854600    18.5034760    -0.0046105        0.013940789   0.338976058  -0.000004115
    -0.0050585     0.0002377     2.4450760        0.000659665   0.000612291   2.569731325

                       Lattice parameters(A)       Cell Angles
                    a =     19.139216          alpha =   90.013725
                    b =     18.520140          beta  =   90.132799
                    c =      2.445081          gamma =   89.924318

                Current cell volume =           866.682750 A**3
                            density =             0.010398 amu/A**3
                                    =             0.017267 g/cm^3

------------------------------------------------------------------------ <-- SCF
SCF loop      Energy           Fermi           Energy gain       Timer   <-- SCF
                               energy          per atom          (sec)   <-- SCF
------------------------------------------------------------------------ <-- SCF
Initial  -3.90392640E+002  0.00000000E+000                      3197.34  <-- SCF
      1  -3.90392655E+002 -2.78545214E+000   1.49907464E-005    3216.37  <-- SCF
      2  -3.90392656E+002 -2.78545214E+000   1.12876928E-006    3245.83  <-- SCF
      3  -3.90392668E+002 -2.78539703E+000   1.17232640E-005    3270.00  <-- SCF
      4  -3.90392668E+002 -2.78505981E+000   2.13495443E-009    3294.34  <-- SCF
      5  -3.90392670E+002 -2.78525564E+000   2.34652528E-006    3319.11  <-- SCF
      6  -3.90392671E+002 -2.78499474E+000   1.03774050E-006    3344.61  <-- SCF
      7  -3.90392673E+002 -2.78507590E+000   1.77184039E-006    3368.96  <-- SCF
      8  -3.90392672E+002 -2.78504443E+000  -1.04106503E-006    3391.74  <-- SCF
      9  -3.90392669E+002 -2.78506985E+000  -2.63990141E-006    3414.74  <-- SCF
     10  -3.90392662E+002 -2.78498940E+000  -6.70550604E-006    3438.50  <-- SCF
     11  -3.90392658E+002 -2.78498441E+000  -4.10436444E-006    3464.04  <-- SCF
     12  -3.90392653E+002 -2.78489547E+000  -4.72680700E-006    3487.72  <-- SCF
     13  -3.90392653E+002 -2.78489409E+000  -7.46194513E-007    3514.58  <-- SCF
     14  -3.90392652E+002 -2.78487624E+000  -8.29482581E-007    3537.63  <-- SCF
     15  -3.90392653E+002 -2.78488841E+000   7.63145668E-007    3561.12  <-- SCF
     16  -3.90392654E+002 -2.78488972E+000   1.49695205E-006    3584.89  <-- SCF
     17  -3.90392654E+002 -2.78488199E+000  -5.34120471E-008    3610.35  <-- SCF
     18  -3.90392654E+002 -2.78488814E+000  -4.49736214E-007    3634.24  <-- SCF
     19  -3.90392654E+002 -2.78488050E+000  -7.39858772E-008    3660.04  <-- SCF
     20  -3.90392654E+002 -2.78488239E+000   1.98997204E-008    3684.13  <-- SCF
     21  -3.90392654E+002 -2.78488022E+000   3.30841854E-007    3710.26  <-- SCF
     22  -3.90392654E+002 -2.78488141E+000   1.92074457E-007    3734.02  <-- SCF
     23  -3.90392654E+002 -2.78488236E+000   1.65985360E-007    3757.87  <-- SCF
     24  -3.90392654E+002 -2.78488220E+000  -1.42693146E-008    3784.18  <-- SCF
     25  -3.90392654E+002 -2.78488118E+000  -6.27035073E-008    3808.63  <-- SCF
     26  -3.90392654E+002 -2.78488132E+000   5.52928449E-009    3834.37  <-- SCF
     27  -3.90392654E+002 -2.78488111E+000  -7.97282317E-009    3858.61  <-- SCF
     28  -3.90392654E+002 -2.78488117E+000   3.13905200E-008    3881.47  <-- SCF
     29  -3.90392654E+002 -2.78488125E+000   6.94256555E-009    3906.38  <-- SCF
     30  -3.90392654E+002 -2.78488135E+000  -1.68517742E-008    3929.10  <-- SCF
     31  -3.90392654E+002 -2.78488127E+000   1.65535341E-009    3953.34  <-- SCF
     32  -3.90392654E+002 -2.78488128E+000  -9.02164226E-009    3978.59  <-- SCF
     33  -3.90392654E+002 -2.78488126E+000   7.54078589E-009    4004.52  <-- SCF
     34  -3.90392654E+002 -2.78488123E+000  -9.47407781E-012    4032.12  <-- SCF
     35  -3.90392654E+002 -2.78488121E+000   3.67362201E-012    4055.84  <-- SCF
     36  -3.90392654E+002 -2.78488121E+000   2.61020511E-012    4078.74  <-- SCF
------------------------------------------------------------------------ <-- SCF
 
Final energy, E             =  -390.3926542262     eV
Final free energy (E-TS)    =  -390.3926542262     eV
(energies not corrected for finite basis set)
 
NB est. 0K energy (E-0.5TS)      =  -390.3926542262     eV
 

 ***************** Stress Tensor *****************
 *                                               *
 *          Cartesian components (GPa)           *
 * --------------------------------------------- *
 *             x             y             z     *
 *                                               *
 *  x     -0.010376      0.000070     -0.000880  *
 *  y      0.000070     -0.007627     -0.000031  *
 *  z     -0.000880     -0.000031      0.519116  *
 *                                               *
 *  Pressure:   -0.1670                          *
 *                                               *
 *************************************************

 *********** Constrained Stress Tensor ***********
 *                                               *
 *          Cartesian components (GPa)           *
 * --------------------------------------------- *
 *             x             y             z     *
 *                                               *
 *  x     -0.000000     -0.000000     -0.000470  *
 *  y     -0.000000      0.000000      0.000087  *
 *  z     -0.000470      0.000087      0.519117  *
 *                                               *
 *  Pressure:   -0.1730                          *
 *                                               *
 *************************************************
  
 +------------+-------------+-------------+-----------------+ <-- min LBFGS
 |    Step    |   lambda    |   F.delta'  |    enthalpy     | <-- min LBFGS
 +------------+-------------+-------------+-----------------+ <-- min LBFGS
 |  previous  |    0.000000 |    0.103422 |     -390.391680 | <-- min LBFGS
 | trial step |    1.000000 |    0.103268 |     -390.392653 | <-- min LBFGS
 +------------+-------------+-------------+-----------------+ <-- min LBFGS
  
 LBFGS: finished iteration     2 with enthalpy= -3.90392653E+002 eV
  
 +-----------+-----------------+-----------------+------------+-----+ <-- LBFGS
 | Parameter |      value      |    tolerance    |    units   | OK? | <-- LBFGS
 +-----------+-----------------+-----------------+------------+-----+ <-- LBFGS
 |  dE/ion   |   9.738982E-004 |   2.000000E-005 |         eV | No  | <-- LBFGS
 |   Smax    |   5.191166E-001 |   1.000000E-001 |        GPa | No  | <-- LBFGS
 +-----------+-----------------+-----------------+------------+-----+ <-- LBFGS
  

================================================================================
 Starting LBFGS iteration          3 ...
================================================================================
  
 +------------+-------------+-------------+-----------------+ <-- min LBFGS
 |    Step    |   lambda    |   F.delta'  |    enthalpy     | <-- min LBFGS
 +------------+-------------+-------------+-----------------+ <-- min LBFGS
 |  previous  |    0.000000 |    0.103268 |     -390.392653 | <-- min LBFGS
 +------------+-------------+-------------+-----------------+ <-- min LBFGS
  

--------------------------------------------------------------------------------
 LBFGS: starting iteration         3 with trial guess (lambda=  1.000000)
--------------------------------------------------------------------------------

                           -------------------------------
                                      Unit Cell
                           -------------------------------
        Real Lattice(A)              Reciprocal Lattice(1/A)
    19.1230500    -0.7864580    -0.0047139        0.327993636  -0.013922938   0.000680051
     0.7854600    18.5034760    -0.0046097        0.013940789   0.338976058  -0.000004101
    -0.0050577     0.0002376     2.4442293        0.000658859   0.000612440   2.570621577

                       Lattice parameters(A)       Cell Angles
                    a =     19.139216          alpha =   90.013725
                    b =     18.520140          beta  =   90.132799
                    c =      2.444235          gamma =   89.924318

                Current cell volume =           866.382602 A**3
                            density =             0.010402 amu/A**3
                                    =             0.017273 g/cm^3

------------------------------------------------------------------------ <-- SCF
SCF loop      Energy           Fermi           Energy gain       Timer   <-- SCF
                               energy          per atom          (sec)   <-- SCF
------------------------------------------------------------------------ <-- SCF
Initial  -3.90393610E+002  0.00000000E+000                      4110.36  <-- SCF
      1  -3.90393625E+002 -2.78573988E+000   1.49639343E-005    4129.61  <-- SCF
      2  -3.90393626E+002 -2.78573989E+000   1.11509625E-006    4159.20  <-- SCF
      3  -3.90393632E+002 -2.78548654E+000   5.75310301E-006    4183.67  <-- SCF
      4  -3.90393638E+002 -2.78540046E+000   5.64201374E-006    4207.77  <-- SCF
      5  -3.90393640E+002 -2.78549979E+000   2.60284172E-006    4233.03  <-- SCF
      6  -3.90393642E+002 -2.78532561E+000   1.29480607E-006    4258.71  <-- SCF
      7  -3.90393644E+002 -2.78537969E+000   1.80224696E-006    4283.03  <-- SCF
      8  -3.90393642E+002 -2.78532787E+000  -1.04847927E-006    4306.51  <-- SCF
      9  -3.90393639E+002 -2.78536880E+000  -3.23250343E-006    4329.51  <-- SCF
     10  -3.90393634E+002 -2.78526878E+000  -5.20457053E-006    4353.22  <-- SCF
     11  -3.90393630E+002 -2.78527816E+000  -4.42594489E-006    4377.70  <-- SCF
     12  -3.90393624E+002 -2.78523525E+000  -5.20118413E-006    4402.11  <-- SCF
     13  -3.90393622E+002 -2.78519611E+000  -2.05782432E-006    4427.90  <-- SCF
     14  -3.90393624E+002 -2.78521786E+000   1.77109754E-006    4450.80  <-- SCF
     15  -3.90393625E+002 -2.78521017E+000   1.08412994E-006    4474.78  <-- SCF
     16  -3.90393626E+002 -2.78521992E+000   6.19847534E-007    4498.81  <-- SCF
     17  -3.90393625E+002 -2.78521365E+000  -4.13156799E-007    4525.04  <-- SCF
     18  -3.90393625E+002 -2.78521746E+000  -2.31879794E-007    4551.40  <-- SCF
     19  -3.90393625E+002 -2.78521569E+000   4.21015450E-008    4575.91  <-- SCF
     20  -3.90393625E+002 -2.78521166E+000   2.64502621E-007    4600.10  <-- SCF
     21  -3.90393626E+002 -2.78521342E+000   2.51315285E-007    4624.35  <-- SCF
     22  -3.90393626E+002 -2.78521320E+000   7.15976362E-008    4650.22  <-- SCF
     23  -3.90393626E+002 -2.78521300E+000   1.94577257E-008    4674.48  <-- SCF
     24  -3.90393626E+002 -2.78521255E+000  -2.10074141E-008    4698.85  <-- SCF
     25  -3.90393626E+002 -2.78521248E+000   1.17149776E-007    4723.62  <-- SCF
     26  -3.90393626E+002 -2.78521233E+000   2.63341660E-008    4750.56  <-- SCF
     27  -3.90393626E+002 -2.78521223E+000   8.71624826E-009    4776.45  <-- SCF
     28  -3.90393626E+002 -2.78521229E+000   3.55381359E-008    4800.58  <-- SCF
     29  -3.90393626E+002 -2.78521228E+000  -3.67362201E-012    4828.08  <-- SCF
     30  -3.90393626E+002 -2.78521226E+000  -5.51043301E-012    4853.03  <-- SCF
     31  -3.90393626E+002 -2.78521228E+000  -2.90022790E-013    4879.57  <-- SCF
------------------------------------------------------------------------ <-- SCF
 
Final energy, E             =  -390.3936259766     eV
Final free energy (E-TS)    =  -390.3936259766     eV
(energies not corrected for finite basis set)
 
NB est. 0K energy (E-0.5TS)      =  -390.3936259766     eV
 

 ***************** Stress Tensor *****************
 *                                               *
 *          Cartesian components (GPa)           *
 * --------------------------------------------- *
 *             x             y             z     *
 *                                               *
 *  x     -0.010493      0.000032     -0.000956  *
 *  y      0.000032     -0.008116     -0.000047  *
 *  z     -0.000956     -0.000047      0.518326  *
 *                                               *
 *  Pressure:   -0.1666                          *
 *                                               *
 *************************************************

 *********** Constrained Stress Tensor ***********
 *                                               *
 *          Cartesian components (GPa)           *
 * --------------------------------------------- *
 *             x             y             z     *
 *                                               *
 *  x     -0.000000     -0.000000     -0.000470  *
 *  y     -0.000000      0.000000      0.000087  *
 *  z     -0.000470      0.000087      0.518326  *
 *                                               *
 *  Pressure:   -0.1728                          *
 *                                               *
 *************************************************
  
 +------------+-------------+-------------+-----------------+ <-- min LBFGS
 |    Step    |   lambda    |   F.delta'  |    enthalpy     | <-- min LBFGS
 +------------+-------------+-------------+-----------------+ <-- min LBFGS
 |  previous  |    0.000000 |    0.103268 |     -390.392653 | <-- min LBFGS
 | trial step |    1.000000 |    0.103111 |     -390.393625 | <-- min LBFGS
 +------------+-------------+-------------+-----------------+ <-- min LBFGS
  
 LBFGS: finished iteration     3 with enthalpy= -3.90393625E+002 eV
  
 +-----------+-----------------+-----------------+------------+-----+ <-- LBFGS
 | Parameter |      value      |    tolerance    |    units   | OK? | <-- LBFGS
 +-----------+-----------------+-----------------+------------+-----+ <-- LBFGS
 |  dE/ion   |   9.717429E-004 |   2.000000E-005 |         eV | No  | <-- LBFGS
 |   Smax    |   5.183261E-001 |   1.000000E-001 |        GPa | No  | <-- LBFGS
 +-----------+-----------------+-----------------+------------+-----+ <-- LBFGS
  

================================================================================
 Starting LBFGS iteration          4 ...
================================================================================
  
 +------------+-------------+-------------+-----------------+ <-- min LBFGS
 |    Step    |   lambda    |   F.delta'  |    enthalpy     | <-- min LBFGS
 +------------+-------------+-------------+-----------------+ <-- min LBFGS
 |  previous  |    0.000000 |    0.103111 |     -390.393625 | <-- min LBFGS
 +------------+-------------+-------------+-----------------+ <-- min LBFGS
  

--------------------------------------------------------------------------------
 LBFGS: starting iteration         4 with trial guess (lambda=  1.000000)
--------------------------------------------------------------------------------

                           -------------------------------
                                      Unit Cell
                           -------------------------------
        Real Lattice(A)              Reciprocal Lattice(1/A)
    19.1230500    -0.7864580    -0.0047063        0.327993636  -0.013922938   0.000680182
     0.7854600    18.5034760    -0.0046089        0.013940789   0.338976058  -0.000004087
    -0.0050569     0.0002374     2.4433838        0.000658053   0.000612589   2.571511089

                       Lattice parameters(A)       Cell Angles
                    a =     19.139216          alpha =   90.013725
                    b =     18.520140          beta  =   90.132799
                    c =      2.443389          gamma =   89.924318

                Current cell volume =           866.082911 A**3
                            density =             0.010406 amu/A**3
                                    =             0.017279 g/cm^3

------------------------------------------------------------------------ <-- SCF
SCF loop      Energy           Fermi           Energy gain       Timer   <-- SCF
                               energy          per atom          (sec)   <-- SCF
------------------------------------------------------------------------ <-- SCF
Initial  -3.90394578E+002  0.00000000E+000                      4911.21  <-- SCF
      1  -3.90394593E+002 -2.78605921E+000   1.48878639E-005    4930.23  <-- SCF
      2  -3.90394594E+002 -2.78605922E+000   1.17361695E-006    4960.28  <-- SCF
      3  -3.90394602E+002 -2.78572565E+000   8.07720895E-006    4983.57  <-- SCF
      4  -3.90394604E+002 -2.78570633E+000   2.24198270E-006    5007.98  <-- SCF
      5  -3.90394608E+002 -2.78582061E+000   4.09810536E-006    5032.91  <-- SCF
      6  -3.90394610E+002 -2.78566020E+000   1.22994547E-006    5058.21  <-- SCF
      7  -3.90394611E+002 -2.78572093E+000   1.10675984E-006    5082.42  <-- SCF
      8  -3.90394610E+002 -2.78567411E+000  -8.70171425E-007    5105.90  <-- SCF
      9  -3.90394606E+002 -2.78567471E+000  -3.40534474E-006    5129.35  <-- SCF
     10  -3.90394600E+002 -2.78554959E+000  -6.55705333E-006    5152.76  <-- SCF
     11  -3.90394597E+002 -2.78558833E+000  -3.18874422E-006    5178.04  <-- SCF
     12  -3.90394593E+002 -2.78553381E+000  -3.64765269E-006    5202.17  <-- SCF
     13  -3.90394591E+002 -2.78551789E+000  -2.56171011E-006    5227.73  <-- SCF
     14  -3.90394591E+002 -2.78549389E+000   2.74953496E-007    5250.79  <-- SCF
     15  -3.90394592E+002 -2.78549728E+000   1.31885766E-006    5274.38  <-- SCF
     16  -3.90394593E+002 -2.78551379E+000   6.95559724E-007    5298.42  <-- SCF
     17  -3.90394593E+002 -2.78551045E+000  -2.67534230E-007    5324.99  <-- SCF
     18  -3.90394592E+002 -2.78550705E+000  -2.58872312E-007    5350.97  <-- SCF
     19  -3.90394592E+002 -2.78550505E+000  -1.96581024E-007    5376.41  <-- SCF
     20  -3.90394592E+002 -2.78550312E+000   2.62827643E-007    5400.16  <-- SCF
     21  -3.90394593E+002 -2.78550478E+000   2.82545616E-007    5425.05  <-- SCF
     22  -3.90394593E+002 -2.78550465E+000   1.45897511E-007    5449.32  <-- SCF
     23  -3.90394593E+002 -2.78550543E+000   5.74453941E-008    5475.16  <-- SCF
     24  -3.90394593E+002 -2.78550435E+000   3.39535481E-008    5500.93  <-- SCF
     25  -3.90394593E+002 -2.78550407E+000  -1.17612942E-008    5528.10  <-- SCF
     26  -3.90394593E+002 -2.78550422E+000   8.97997565E-009    5552.63  <-- SCF
     27  -3.90394593E+002 -2.78550421E+000   1.15721027E-008    5578.23  <-- SCF
     28  -3.90394593E+002 -2.78550413E+000  -2.59522060E-009    5604.07  <-- SCF
     29  -3.90394593E+002 -2.78550414E+000   5.02706169E-012    5630.89  <-- SCF
     30  -3.90394593E+002 -2.78550411E+000  -1.71794033E-008    5654.71  <-- SCF
     31  -3.90394593E+002 -2.78550410E+000  -9.66742633E-014    5681.64  <-- SCF
     32  -3.90394593E+002 -2.78550408E+000  -6.10749326E-009    5704.86  <-- SCF
     33  -3.90394593E+002 -2.78550408E+000   9.47407781E-012    5731.97  <-- SCF
     34  -3.90394593E+002 -2.78550405E+000   5.02706169E-012    5757.14  <-- SCF
     35  -3.90394593E+002 -2.78550404E+000  -7.05722122E-012    5777.24  <-- SCF
------------------------------------------------------------------------ <-- SCF
 
Final energy, E             =  -390.3945928660     eV
Final free energy (E-TS)    =  -390.3945928660     eV
(energies not corrected for finite basis set)
 
NB est. 0K energy (E-0.5TS)      =  -390.3945928660     eV
 

 ***************** Stress Tensor *****************
 *                                               *
 *          Cartesian components (GPa)           *
 * --------------------------------------------- *
 *             x             y             z     *
 *                                               *
 *  x     -0.010462      0.000050     -0.000926  *
 *  y      0.000050     -0.007953     -0.000047  *
 *  z     -0.000926     -0.000047      0.517653  *
 *                                               *
 *  Pressure:   -0.1664                          *
 *                                               *
 *************************************************

 *********** Constrained Stress Tensor ***********
 *                                               *
 *          Cartesian components (GPa)           *
 * --------------------------------------------- *
 *             x             y             z     *
 *                                               *
 *  x     -0.000000     -0.000000     -0.000469  *
 *  y     -0.000000      0.000000      0.000087  *
 *  z     -0.000469      0.000087      0.517654  *
 *                                               *
 *  Pressure:   -0.1726                          *
 *                                               *
 *************************************************
  
 +------------+-------------+-------------+-----------------+ <-- min LBFGS
 |    Step    |   lambda    |   F.delta'  |    enthalpy     | <-- min LBFGS
 +------------+-------------+-------------+-----------------+ <-- min LBFGS
 |  previous  |    0.000000 |    0.103111 |     -390.393625 | <-- min LBFGS
 | trial step |    1.000000 |    0.102977 |     -390.394592 | <-- min LBFGS
 +------------+-------------+-------------+-----------------+ <-- min LBFGS
  
 LBFGS: finished iteration     4 with enthalpy= -3.90394592E+002 eV
  
 +-----------+-----------------+-----------------+------------+-----+ <-- LBFGS
 | Parameter |      value      |    tolerance    |    units   | OK? | <-- LBFGS
 +-----------+-----------------+-----------------+------------+-----+ <-- LBFGS
 |  dE/ion   |   9.668969E-004 |   2.000000E-005 |         eV | No  | <-- LBFGS
 |   Smax    |   5.176539E-001 |   1.000000E-001 |        GPa | No  | <-- LBFGS
 +-----------+-----------------+-----------------+------------+-----+ <-- LBFGS
  

================================================================================
 Starting LBFGS iteration          5 ...
================================================================================

Writing analysis data to Be_nanowire.castep_bin

Writing model to Be_nanowire.check
  
 +------------+-------------+-------------+-----------------+ <-- min LBFGS
 |    Step    |   lambda    |   F.delta'  |    enthalpy     | <-- min LBFGS
 +------------+-------------+-------------+-----------------+ <-- min LBFGS
 |  previous  |    0.000000 |    0.102977 |     -390.394592 | <-- min LBFGS
 +------------+-------------+-------------+-----------------+ <-- min LBFGS
  

--------------------------------------------------------------------------------
 LBFGS: starting iteration         5 with trial guess (lambda=  1.000000)
--------------------------------------------------------------------------------

                           -------------------------------
                                      Unit Cell
                           -------------------------------
        Real Lattice(A)              Reciprocal Lattice(1/A)
    19.1230500    -0.7864580    -0.0046986        0.327993636  -0.013922938   0.000680314
     0.7854600    18.5034760    -0.0046082        0.013940789   0.338976058  -0.000004073
    -0.0050562     0.0002373     2.4425394        0.000657247   0.000612739   2.572400062

                       Lattice parameters(A)       Cell Angles
                    a =     19.139216          alpha =   90.013725
                    b =     18.520140          beta  =   90.132799
                    c =      2.442545          gamma =   89.924318

                Current cell volume =           865.783610 A**3
                            density =             0.010409 amu/A**3
                                    =             0.017285 g/cm^3

------------------------------------------------------------------------ <-- SCF
SCF loop      Energy           Fermi           Energy gain       Timer   <-- SCF
                               energy          per atom          (sec)   <-- SCF
------------------------------------------------------------------------ <-- SCF
Initial  -3.90395543E+002  0.00000000E+000                      5821.58  <-- SCF
      1  -3.90395558E+002 -2.78639785E+000   1.48495790E-005    5840.83  <-- SCF
      2  -3.90395559E+002 -2.78639785E+000   1.16748519E-006    5870.40  <-- SCF
      3  -3.90395570E+002 -2.78608921E+000   1.05180309E-005    5894.28  <-- SCF
      4  -3.90395570E+002 -2.78601637E+000  -6.58111014E-008    5918.72  <-- SCF
      5  -3.90395574E+002 -2.78616785E+000   4.01739453E-006    5943.81  <-- SCF
      6  -3.90395574E+002 -2.78596833E+000   7.86635291E-007    5969.54  <-- SCF
      7  -3.90395576E+002 -2.78603528E+000   1.33001687E-006    5993.85  <-- SCF
      8  -3.90395575E+002 -2.78598243E+000  -3.66200079E-007    6017.56  <-- SCF
      9  -3.90395573E+002 -2.78599405E+000  -2.42781838E-006    6041.13  <-- SCF
     10  -3.90395568E+002 -2.78595106E+000  -5.38039066E-006    6064.22  <-- SCF
     11  -3.90395564E+002 -2.78592482E+000  -4.04033794E-006    6089.01  <-- SCF
     12  -3.90395559E+002 -2.78590216E+000  -4.08499720E-006    6113.46  <-- SCF
     13  -3.90395557E+002 -2.78584956E+000  -2.11820513E-006    6137.72  <-- SCF
     14  -3.90395557E+002 -2.78586722E+000  -6.61014723E-007    6163.33  <-- SCF
     15  -3.90395558E+002 -2.78586235E+000   1.30972426E-006    6186.22  <-- SCF
     16  -3.90395559E+002 -2.78587034E+000   9.75372358E-007    6210.61  <-- SCF
     17  -3.90395559E+002 -2.78587581E+000   1.66944078E-007    6235.10  <-- SCF
     18  -3.90395559E+002 -2.78586614E+000  -3.25977689E-007    6259.63  <-- SCF
     19  -3.90395559E+002 -2.78587571E+000  -1.78660806E-007    6284.28  <-- SCF
     20  -3.90395558E+002 -2.78586784E+000  -2.10604786E-007    6308.71  <-- SCF
     21  -3.90395559E+002 -2.78586599E+000   2.29070537E-007    6332.89  <-- SCF
     22  -3.90395559E+002 -2.78586726E+000   1.55404845E-007    6357.30  <-- SCF
     23  -3.90395559E+002 -2.78586840E+000   2.09722150E-007    6382.18  <-- SCF
     24  -3.90395559E+002 -2.78586781E+000   2.59531727E-008    6409.33  <-- SCF
     25  -3.90395559E+002 -2.78586768E+000  -1.18890976E-008    6434.07  <-- SCF
     26  -3.90395559E+002 -2.78586730E+000  -2.25193029E-009    6458.48  <-- SCF
     27  -3.90395559E+002 -2.78586731E+000   3.74119732E-009    6485.64  <-- SCF
     28  -3.90395559E+002 -2.78586721E+000   1.33148496E-008    6510.15  <-- SCF
     29  -3.90395559E+002 -2.78586708E+000   2.13795133E-009    6536.08  <-- SCF
     30  -3.90395559E+002 -2.78586698E+000  -5.80045580E-012    6563.70  <-- SCF
     31  -3.90395559E+002 -2.78586715E+000  -4.64693849E-009    6586.75  <-- SCF
     32  -3.90395559E+002 -2.78586712E+000  -2.14027152E-009    6611.00  <-- SCF
     33  -3.90395559E+002 -2.78586709E+000  -1.22776314E-011    6637.81  <-- SCF
     34  -3.90395559E+002 -2.78586703E+000   3.19025069E-012    6662.99  <-- SCF
     35  -3.90395559E+002 -2.78586706E+000   6.76719843E-012    6688.37  <-- SCF
     36  -3.90395559E+002 -2.78586704E+000  -5.80045580E-012    6707.53  <-- SCF
------------------------------------------------------------------------ <-- SCF
 
Final energy, E             =  -390.3955590124     eV
Final free energy (E-TS)    =  -390.3955590124     eV
(energies not corrected for finite basis set)
 
NB est. 0K energy (E-0.5TS)      =  -390.3955590124     eV
 

 ***************** Stress Tensor *****************
 *                                               *
 *          Cartesian components (GPa)           *
 * --------------------------------------------- *
 *             x             y             z     *
 *                                               *
 *  x     -0.010530      0.000017     -0.000966  *
 *  y      0.000017     -0.008208     -0.000051  *
 *  z     -0.000966     -0.000051      0.516898  *
 *                                               *
 *  Pressure:   -0.1661                          *
 *                                               *
 *************************************************

 *********** Constrained Stress Tensor ***********
 *                                               *
 *          Cartesian components (GPa)           *
 * --------------------------------------------- *
 *             x             y             z     *
 *                                               *
 *  x     -0.000000     -0.000000     -0.000469  *
 *  y     -0.000000      0.000000      0.000087  *
 *  z     -0.000469      0.000087      0.516898  *
 *                                               *
 *  Pressure:   -0.1723                          *
 *                                               *
 *************************************************
  
 +------------+-------------+-------------+-----------------+ <-- min LBFGS
 |    Step    |   lambda    |   F.delta'  |    enthalpy     | <-- min LBFGS
 +------------+-------------+-------------+-----------------+ <-- min LBFGS
 |  previous  |    0.000000 |    0.102977 |     -390.394592 | <-- min LBFGS
 | trial step |    1.000000 |    0.102827 |     -390.395558 | <-- min LBFGS
 +------------+-------------+-------------+-----------------+ <-- min LBFGS
  
 LBFGS: finished iteration     5 with enthalpy= -3.90395558E+002 eV
  
 +-----------+-----------------+-----------------+------------+-----+ <-- LBFGS
 | Parameter |      value      |    tolerance    |    units   | OK? | <-- LBFGS
 +-----------+-----------------+-----------------+------------+-----+ <-- LBFGS
 |  dE/ion   |   9.661369E-004 |   2.000000E-005 |         eV | No  | <-- LBFGS
 |   Smax    |   5.168983E-001 |   1.000000E-001 |        GPa | No  | <-- LBFGS
 +-----------+-----------------+-----------------+------------+-----+ <-- LBFGS
  

================================================================================
 Starting LBFGS iteration          6 ...
================================================================================
  
 +------------+-------------+-------------+-----------------+ <-- min LBFGS
 |    Step    |   lambda    |   F.delta'  |    enthalpy     | <-- min LBFGS
 +------------+-------------+-------------+-----------------+ <-- min LBFGS
 |  previous  |    0.000000 |    0.102827 |     -390.395558 | <-- min LBFGS
 +------------+-------------+-------------+-----------------+ <-- min LBFGS
  

--------------------------------------------------------------------------------
 LBFGS: starting iteration         6 with trial guess (lambda=  1.000000)
--------------------------------------------------------------------------------

                           -------------------------------
                                      Unit Cell
                           -------------------------------
        Real Lattice(A)              Reciprocal Lattice(1/A)
    19.1230500    -0.7864580    -0.0046909        0.327993635  -0.013922938   0.000680445
     0.7854600    18.5034760    -0.0046074        0.013940789   0.338976058  -0.000004059
    -0.0050554     0.0002371     2.4416962        0.000656442   0.000612888   2.573288351

                       Lattice parameters(A)       Cell Angles
                    a =     19.139216          alpha =   90.013725
                    b =     18.520140          beta  =   90.132799
                    c =      2.441701          gamma =   89.924318

                Current cell volume =           865.484745 A**3
                            density =             0.010413 amu/A**3
                                    =             0.017291 g/cm^3

------------------------------------------------------------------------ <-- SCF
SCF loop      Energy           Fermi           Energy gain       Timer   <-- SCF
                               energy          per atom          (sec)   <-- SCF
------------------------------------------------------------------------ <-- SCF
Initial  -3.90396510E+002  0.00000000E+000                      6739.24  <-- SCF
      1  -3.90396525E+002 -2.78676756E+000   1.48418370E-005    6758.26  <-- SCF
      2  -3.90396526E+002 -2.78676757E+000   1.12775662E-006    6788.00  <-- SCF
      3  -3.90396531E+002 -2.78637309E+000   4.77411909E-006    6812.39  <-- SCF
      4  -3.90396536E+002 -2.78634353E+000   5.39077657E-006    6836.46  <-- SCF
      5  -3.90396540E+002 -2.78649146E+000   3.59375021E-006    6861.67  <-- SCF
      6  -3.90396541E+002 -2.78631154E+000   8.97311661E-007    6887.33  <-- SCF
      7  -3.90396542E+002 -2.78636783E+000   1.55303656E-006    6911.63  <-- SCF
      8  -3.90396541E+002 -2.78631311E+000  -1.56776585E-006    6934.41  <-- SCF
      9  -3.90396537E+002 -2.78633584E+000  -3.60160896E-006    6957.17  <-- SCF
     10  -3.90396532E+002 -2.78625856E+000  -4.98242622E-006    6980.56  <-- SCF
     11  -3.90396528E+002 -2.78625401E+000  -4.16967080E-006    7004.67  <-- SCF
     12  -3.90396524E+002 -2.78622959E+000  -3.96912661E-006    7029.14  <-- SCF
     13  -3.90396522E+002 -2.78618638E+000  -1.61245798E-006    7054.20  <-- SCF
     14  -3.90396523E+002 -2.78619604E+000   9.76640531E-007    7077.26  <-- SCF
     15  -3.90396524E+002 -2.78620232E+000   9.40285885E-007    7100.94  <-- SCF
     16  -3.90396525E+002 -2.78619767E+000   6.15963549E-007    7125.30  <-- SCF
     17  -3.90396524E+002 -2.78620695E+000  -3.63715648E-007    7150.15  <-- SCF
     18  -3.90396524E+002 -2.78619739E+000  -2.89722713E-007    7175.15  <-- SCF
     19  -3.90396524E+002 -2.78619847E+000  -2.96843739E-007    7198.69  <-- SCF
     20  -3.90396524E+002 -2.78619370E+000   3.77663134E-007    7223.42  <-- SCF
     21  -3.90396524E+002 -2.78619713E+000   2.80764876E-007    7246.99  <-- SCF
     22  -3.90396525E+002 -2.78619794E+000   2.17475039E-007    7270.91  <-- SCF
     23  -3.90396525E+002 -2.78619657E+000   7.37789942E-008    7297.83  <-- SCF
     24  -3.90396525E+002 -2.78619609E+000   2.09058094E-009    7322.31  <-- SCF
     25  -3.90396525E+002 -2.78619619E+000   3.55657848E-008    7348.31  <-- SCF
     26  -3.90396525E+002 -2.78619602E+000   1.36328113E-008    7373.65  <-- SCF
     27  -3.90396525E+002 -2.78619592E+000   2.48808618E-008    7398.13  <-- SCF
     28  -3.90396525E+002 -2.78619602E+000   9.27598258E-008    7421.42  <-- SCF
     29  -3.90396525E+002 -2.78619607E+000   3.88437190E-009    7448.77  <-- SCF
     30  -3.90396525E+002 -2.78619605E+000  -1.88267327E-008    7473.07  <-- SCF
     31  -3.90396525E+002 -2.78619608E+000   1.48878366E-011    7500.61  <-- SCF
     32  -3.90396525E+002 -2.78619597E+000  -5.54403698E-008    7524.20  <-- SCF
     33  -3.90396525E+002 -2.78619599E+000   1.17942601E-011    7552.01  <-- SCF
     34  -3.90396525E+002 -2.78619597E+000  -8.99070649E-012    7576.65  <-- SCF
     35  -3.90396525E+002 -2.78619596E+000   8.79735796E-012    7599.43  <-- SCF
     36  -3.90396525E+002 -2.78619596E+000  -1.83681100E-012    7619.44  <-- SCF
     37  -3.90396525E+002 -2.78619595E+000   2.99690216E-012    7639.14  <-- SCF
------------------------------------------------------------------------ <-- SCF
 
Final energy, E             =  -390.3965248242     eV
Final free energy (E-TS)    =  -390.3965248242     eV
(energies not corrected for finite basis set)
 
NB est. 0K energy (E-0.5TS)      =  -390.3965248242     eV
 

 ***************** Stress Tensor *****************
 *                                               *
 *          Cartesian components (GPa)           *
 * --------------------------------------------- *
 *             x             y             z     *
 *                                               *
 *  x     -0.010579     -0.000001     -0.000993  *
 *  y     -0.000001     -0.008370     -0.000055  *
 *  z     -0.000993     -0.000055      0.516149  *
 *                                               *
 *  Pressure:   -0.1657                          *
 *                                               *
 *************************************************

 *********** Constrained Stress Tensor ***********
 *                                               *
 *          Cartesian components (GPa)           *
 * --------------------------------------------- *
 *             x             y             z     *
 *                                               *
 *  x     -0.000000     -0.000000     -0.000468  *
 *  y     -0.000000      0.000000      0.000086  *
 *  z     -0.000468      0.000086      0.516150  *
 *                                               *
 *  Pressure:   -0.1720                          *
 *                                               *
 *************************************************
  
 +------------+-------------+-------------+-----------------+ <-- min LBFGS
 |    Step    |   lambda    |   F.delta'  |    enthalpy     | <-- min LBFGS
 +------------+-------------+-------------+-----------------+ <-- min LBFGS
 |  previous  |    0.000000 |    0.102827 |     -390.395558 | <-- min LBFGS
 | trial step |    1.000000 |    0.102678 |     -390.396524 | <-- min LBFGS
 +------------+-------------+-------------+-----------------+ <-- min LBFGS
  
 LBFGS: finished iteration     6 with enthalpy= -3.90396524E+002 eV
  
 +-----------+-----------------+-----------------+------------+-----+ <-- LBFGS
 | Parameter |      value      |    tolerance    |    units   | OK? | <-- LBFGS
 +-----------+-----------------+-----------------+------------+-----+ <-- LBFGS
 |  dE/ion   |   9.658051E-004 |   2.000000E-005 |         eV | No  | <-- LBFGS
 |   Smax    |   5.161498E-001 |   1.000000E-001 |        GPa | No  | <-- LBFGS
 +-----------+-----------------+-----------------+------------+-----+ <-- LBFGS
  

================================================================================
 Starting LBFGS iteration          7 ...
================================================================================
  
 +------------+-------------+-------------+-----------------+ <-- min LBFGS
 |    Step    |   lambda    |   F.delta'  |    enthalpy     | <-- min LBFGS
 +------------+-------------+-------------+-----------------+ <-- min LBFGS
 |  previous  |    0.000000 |    0.102678 |     -390.396524 | <-- min LBFGS
 +------------+-------------+-------------+-----------------+ <-- min LBFGS
  

--------------------------------------------------------------------------------
 LBFGS: starting iteration         7 with trial guess (lambda=  1.000000)
--------------------------------------------------------------------------------

                           -------------------------------
                                      Unit Cell
                           -------------------------------
        Real Lattice(A)              Reciprocal Lattice(1/A)
    19.1230500    -0.7864580    -0.0046833        0.327993635  -0.013922938   0.000680576
     0.7854600    18.5034760    -0.0046066        0.013940789   0.338976058  -0.000004046
    -0.0050546     0.0002370     2.4408543        0.000655637   0.000613037   2.574175967

                       Lattice parameters(A)       Cell Angles
                    a =     19.139216          alpha =   90.013725
                    b =     18.520140          beta  =   90.132799
                    c =      2.440860          gamma =   89.924318

                Current cell volume =           865.186312 A**3
                            density =             0.010416 amu/A**3
                                    =             0.017297 g/cm^3

------------------------------------------------------------------------ <-- SCF
SCF loop      Energy           Fermi           Energy gain       Timer   <-- SCF
                               energy          per atom          (sec)   <-- SCF
------------------------------------------------------------------------ <-- SCF
Initial  -3.90397468E+002  0.00000000E+000                      7670.72  <-- SCF
      1  -3.90397483E+002 -2.78706717E+000   1.48195430E-005    7689.74  <-- SCF
      2  -3.90397484E+002 -2.78706718E+000   1.12805109E-006    7718.94  <-- SCF
      3  -3.90397493E+002 -2.78667575E+000   9.37714823E-006    7742.74  <-- SCF
      4  -3.90397494E+002 -2.78665932E+000   6.84994774E-007    7767.08  <-- SCF
      5  -3.90397498E+002 -2.78678387E+000   3.98249512E-006    7791.98  <-- SCF
      6  -3.90397499E+002 -2.78660883E+000   1.02924583E-006    7817.63  <-- SCF
      7  -3.90397501E+002 -2.78666834E+000   1.84276478E-006    7841.23  <-- SCF
      8  -3.90397499E+002 -2.78662560E+000  -1.49329390E-006    7863.89  <-- SCF
      9  -3.90397496E+002 -2.78663917E+000  -3.61825337E-006    7886.56  <-- SCF
     10  -3.90397489E+002 -2.78656159E+000  -6.25643524E-006    7910.09  <-- SCF
     11  -3.90397485E+002 -2.78654971E+000  -4.28046869E-006    7934.23  <-- SCF
     12  -3.90397481E+002 -2.78652225E+000  -4.29506573E-006    7959.23  <-- SCF
     13  -3.90397480E+002 -2.78648531E+000  -7.41357029E-007    7984.44  <-- SCF
     14  -3.90397482E+002 -2.78650343E+000   1.58055354E-006    8007.19  <-- SCF
     15  -3.90397482E+002 -2.78650848E+000   6.57494329E-007    8032.25  <-- SCF
     16  -3.90397483E+002 -2.78650072E+000   2.71677302E-007    8055.71  <-- SCF
     17  -3.90397482E+002 -2.78651527E+000  -2.23493979E-007    8082.09  <-- SCF
     18  -3.90397482E+002 -2.78649869E+000  -3.48280538E-007    8105.79  <-- SCF
     19  -3.90397482E+002 -2.78650005E+000  -1.20944531E-007    8129.84  <-- SCF
     20  -3.90397482E+002 -2.78650138E+000   2.46537546E-007    8153.65  <-- SCF
     21  -3.90397482E+002 -2.78650010E+000   1.78229735E-007    8178.48  <-- SCF
     22  -3.90397483E+002 -2.78650201E+000   1.95284429E-007    8202.33  <-- SCF
     23  -3.90397483E+002 -2.78650122E+000   1.24861772E-007    8228.86  <-- SCF
     24  -3.90397483E+002 -2.78650049E+000  -5.47414149E-008    8253.17  <-- SCF
     25  -3.90397483E+002 -2.78649970E+000  -1.54198350E-008    8277.97  <-- SCF
     26  -3.90397483E+002 -2.78649972E+000   6.68273413E-008    8302.32  <-- SCF
[...]
  
 +-----------+-----------------+-----------------+------------+-----+ <-- LBFGS
 | Parameter |      value      |    tolerance    |    units   | OK? | <-- LBFGS
 +-----------+-----------------+-----------------+------------+-----+ <-- LBFGS
 |  dE/ion   |   2.462346E-003 |   2.000000E-005 |         eV | No  | <-- LBFGS
 |   Smax    |   4.981103E-001 |   1.000000E-001 |        GPa | No  | <-- LBFGS
 +-----------+-----------------+-----------------+------------+-----+ <-- LBFGS
  

================================================================================
 Starting LBFGS iteration         29 ...
================================================================================
  
 +------------+-------------+-------------+-----------------+ <-- min LBFGS
 |    Step    |   lambda    |   F.delta'  |    enthalpy     | <-- min LBFGS
 +------------+-------------+-------------+-----------------+ <-- min LBFGS
 |  previous  |    0.000000 |    0.099089 |     -390.418590 | <-- min LBFGS
 +------------+-------------+-------------+-----------------+ <-- min LBFGS
  

--------------------------------------------------------------------------------
 LBFGS: starting iteration        29 with trial guess (lambda=  1.000000)
--------------------------------------------------------------------------------

                           -------------------------------
                                      Unit Cell
                           -------------------------------
        Real Lattice(A)              Reciprocal Lattice(1/A)
    19.1230501    -0.7864579    -0.0045176        0.327993629  -0.013922938   0.000683418
     0.7854600    18.5034760    -0.0045902        0.013940789   0.338976058  -0.000003748
    -0.0050379     0.0002340     2.4226348        0.000638036   0.000616301   2.593535088

                       Lattice parameters(A)       Cell Angles
                    a =     19.139216          alpha =   90.013725
                    b =     18.520140          beta  =   90.132799
                    c =      2.422640          gamma =   89.924318

                Current cell volume =           858.728238 A**3
                            density =             0.010495 amu/A**3
                                    =             0.017427 g/cm^3

------------------------------------------------------------------------ <-- SCF
SCF loop      Energy           Fermi           Energy gain       Timer   <-- SCF
                               energy          per atom          (sec)   <-- SCF
------------------------------------------------------------------------ <-- SCF
Initial  -3.90419472E+002  0.00000000E+000                     27413.84  <-- SCF
      1  -3.90419486E+002 -2.79313950E+000   1.40761446E-005   27432.96  <-- SCF
      2  -3.90419487E+002 -2.79313951E+000   9.76016596E-007   27460.95  <-- SCF
      3  -3.90419501E+002 -2.79269818E+000   1.42628976E-005   27484.64  <-- SCF
      4  -3.90419498E+002 -2.79283589E+000  -2.56081288E-006   27507.70  <-- SCF
      5  -3.90419503E+002 -2.79273479E+000   4.58203767E-006   27533.21  <-- SCF
      6  -3.90419505E+002 -2.79275467E+000   2.57663990E-006   27558.92  <-- SCF
      7  -3.90419508E+002 -2.79274536E+000   2.05350327E-006   27583.56  <-- SCF
      8  -3.90419504E+002 -2.79272630E+000  -3.10485899E-006   27605.19  <-- SCF
      9  -3.90419498E+002 -2.79268332E+000  -6.52981333E-006   27627.42  <-- SCF
     10  -3.90419493E+002 -2.79265632E+000  -5.27446960E-006   27651.16  <-- SCF
     11  -3.90419488E+002 -2.79263468E+000  -4.47963372E-006   27675.86  <-- SCF
     12  -3.90419485E+002 -2.79260238E+000  -3.56215117E-006   27700.06  <-- SCF
     13  -3.90419484E+002 -2.79258787E+000  -2.58171327E-007   27722.45  <-- SCF
     14  -3.90419484E+002 -2.79258216E+000  -7.69641212E-008   27744.44  <-- SCF
     15  -3.90419485E+002 -2.79259143E+000   8.61631027E-007   27768.11  <-- SCF
     16  -3.90419485E+002 -2.79259459E+000  -3.51958800E-007   27792.36  <-- SCF
     17  -3.90419485E+002 -2.79259027E+000  -1.19257468E-007   27815.63  <-- SCF
     18  -3.90419484E+002 -2.79258908E+000  -2.28735561E-007   27839.76  <-- SCF
     19  -3.90419485E+002 -2.79258700E+000   3.39366204E-007   27862.02  <-- SCF
     20  -3.90419485E+002 -2.79258663E+000   1.43854494E-007   27886.54  <-- SCF
     21  -3.90419485E+002 -2.79258646E+000   1.67538819E-007   27910.25  <-- SCF
     22  -3.90419485E+002 -2.79258614E+000   9.61036918E-008   27933.15  <-- SCF
     23  -3.90419485E+002 -2.79258647E+000   2.62586634E-009   27957.39  <-- SCF
     24  -3.90419485E+002 -2.79258665E+000   2.83433472E-008   27981.47  <-- SCF
     25  -3.90419485E+002 -2.79258661E+000  -2.60465601E-008   28005.09  <-- SCF
     26  -3.90419485E+002 -2.79258661E+000  -2.49319058E-008   28029.34  <-- SCF
     27  -3.90419485E+002 -2.79258663E+000   2.30902611E-008   28052.07  <-- SCF
     28  -3.90419485E+002 -2.79258665E+000   1.94083251E-009   28076.66  <-- SCF
     29  -3.90419485E+002 -2.79258659E+000   5.37992276E-009   28101.41  <-- SCF
     30  -3.90419485E+002 -2.79258662E+000  -1.54156780E-008   28123.96  <-- SCF
     31  -3.90419485E+002 -2.79258661E+000  -5.37624913E-009   28150.30  <-- SCF
     32  -3.90419485E+002 -2.79258659E+000   7.73394107E-012   28176.90  <-- SCF
     33  -3.90419485E+002 -2.79258658E+000  -6.96054696E-012   28200.36  <-- SCF
------------------------------------------------------------------------ <-- SCF
 
Final energy, E             =  -390.4194851598     eV
Final free energy (E-TS)    =  -390.4194851598     eV
(energies not corrected for finite basis set)
 
NB est. 0K energy (E-0.5TS)      =  -390.4194851598     eV
 

 ***************** Stress Tensor *****************
 *                                               *
 *          Cartesian components (GPa)           *
 * --------------------------------------------- *
 *             x             y             z     *
 *                                               *
 *  x     -0.011672      0.000053     -0.001083  *
 *  y      0.000053     -0.010234     -0.000038  *
 *  z     -0.001083     -0.000038      0.497330  *
 *                                               *
 *  Pressure:   -0.1585                          *
 *                                               *
 *************************************************

 *********** Constrained Stress Tensor ***********
 *                                               *
 *          Cartesian components (GPa)           *
 * --------------------------------------------- *
 *             x             y             z     *
 *                                               *
 *  x     -0.000000     -0.000000     -0.000453  *
 *  y     -0.000000      0.000000      0.000082  *
 *  z     -0.000453      0.000082      0.497330  *
 *                                               *
 *  Pressure:   -0.1658                          *
 *                                               *
 *************************************************
  
 +------------+-------------+-------------+-----------------+ <-- min LBFGS
 |    Step    |   lambda    |   F.delta'  |    enthalpy     | <-- min LBFGS
 +------------+-------------+-------------+-----------------+ <-- min LBFGS
 |  previous  |    0.000000 |    0.099089 |     -390.418590 | <-- min LBFGS
 | trial step |    1.000000 |    0.098934 |     -390.419484 | <-- min LBFGS
 +------------+-------------+-------------+-----------------+ <-- min LBFGS
  
 LBFGS: finished iteration    29 with enthalpy= -3.90419484E+002 eV
  
 +-----------+-----------------+-----------------+------------+-----+ <-- LBFGS
 | Parameter |      value      |    tolerance    |    units   | OK? | <-- LBFGS
 +-----------+-----------------+-----------------+------------+-----+ <-- LBFGS
 |  dE/ion   |   8.942059E-004 |   2.000000E-005 |         eV | No  | <-- LBFGS
 |   Smax    |   4.973301E-001 |   1.000000E-001 |        GPa | No  | <-- LBFGS
 +-----------+-----------------+-----------------+------------+-----+ <-- LBFGS
  

================================================================================
 Starting LBFGS iteration         30 ...
================================================================================

Writing analysis data to Be_nanowire.castep_bin

Writing model to Be_nanowire.check
  
 +------------+-------------+-------------+-----------------+ <-- min LBFGS
 |    Step    |   lambda    |   F.delta'  |    enthalpy     | <-- min LBFGS
 +------------+-------------+-------------+-----------------+ <-- min LBFGS
 |  previous  |    0.000000 |    0.098934 |     -390.419484 | <-- min LBFGS
 +------------+-------------+-------------+-----------------+ <-- min LBFGS
  

--------------------------------------------------------------------------------
 LBFGS: starting iteration        30 with trial guess (lambda=  1.000000)
--------------------------------------------------------------------------------

                           -------------------------------
                                      Unit Cell
                           -------------------------------
        Real Lattice(A)              Reciprocal Lattice(1/A)
    19.1230501    -0.7864579    -0.0045102        0.327993629  -0.013922938   0.000683545
     0.7854600    18.5034760    -0.0045895        0.013940789   0.338976058  -0.000003735
    -0.0050372     0.0002338     2.4218236        0.000637245   0.000616447   2.594403842

                       Lattice parameters(A)       Cell Angles
                    a =     19.139216          alpha =   90.013725
                    b =     18.520140          beta  =   90.132799
                    c =      2.421829          gamma =   89.924318

                Current cell volume =           858.440687 A**3
                            density =             0.010498 amu/A**3
                                    =             0.017433 g/cm^3

------------------------------------------------------------------------ <-- SCF
SCF loop      Energy           Fermi           Energy gain       Timer   <-- SCF
                               energy          per atom          (sec)   <-- SCF
------------------------------------------------------------------------ <-- SCF
Initial  -3.90420363E+002  0.00000000E+000                     28238.40  <-- SCF
      1  -3.90420377E+002 -2.79344507E+000   1.40415273E-005   28257.52  <-- SCF
      2  -3.90420378E+002 -2.79344507E+000   9.65737028E-007   28285.56  <-- SCF
      3  -3.90420393E+002 -2.79306151E+000   1.50454761E-005   28309.40  <-- SCF
      4  -3.90420389E+002 -2.79313356E+000  -3.55003344E-006   28332.04  <-- SCF
      5  -3.90420394E+002 -2.79303283E+000   4.45863810E-006   28357.89  <-- SCF
      6  -3.90420397E+002 -2.79306833E+000   3.16572578E-006   28383.85  <-- SCF
      7  -3.90420398E+002 -2.79305263E+000   1.36442372E-006   28407.92  <-- SCF
      8  -3.90420395E+002 -2.79303571E+000  -3.40683304E-006   28429.63  <-- SCF
      9  -3.90420390E+002 -2.79300407E+000  -4.65934654E-006   28451.62  <-- SCF
     10  -3.90420384E+002 -2.79298645E+000  -6.24529218E-006   28474.88  <-- SCF
     11  -3.90420378E+002 -2.79293076E+000  -5.76470285E-006   28499.93  <-- SCF
     12  -3.90420376E+002 -2.79292225E+000  -1.95840519E-006   28525.09  <-- SCF
     13  -3.90420376E+002 -2.79289799E+000  -8.06162815E-007   28547.46  <-- SCF
     14  -3.90420376E+002 -2.79289647E+000   5.67031774E-007   28569.79  <-- SCF
     15  -3.90420377E+002 -2.79290355E+000   7.06498127E-007   28592.09  <-- SCF
     16  -3.90420377E+002 -2.79290162E+000  -2.18215081E-007   28615.53  <-- SCF
     17  -3.90420377E+002 -2.79290148E+000  -1.41567278E-007   28639.30  <-- SCF
     18  -3.90420376E+002 -2.79289825E+000  -2.20849261E-007   28663.38  <-- SCF
     19  -3.90420376E+002 -2.79289715E+000  -2.92375842E-008   28685.87  <-- SCF
     20  -3.90420377E+002 -2.79289694E+000   4.71366113E-007   28708.62  <-- SCF
     21  -3.90420377E+002 -2.79289814E+000   2.29410637E-007   28732.65  <-- SCF
     22  -3.90420377E+002 -2.79289709E+000   1.08807850E-008   28756.99  <-- SCF
     23  -3.90420377E+002 -2.79289644E+000   2.20894891E-008   28781.78  <-- SCF
     24  -3.90420377E+002 -2.79289640E+000  -6.55806300E-008   28804.55  <-- SCF
     25  -3.90420377E+002 -2.79289643E+000   6.37734980E-008   28828.12  <-- SCF
     26  -3.90420377E+002 -2.79289641E+000   5.99264424E-009   28854.75  <-- SCF
     27  -3.90420377E+002 -2.79289643E+000   1.99680691E-008   28877.46  <-- SCF
     28  -3.90420377E+002 -2.79289643E+000   5.79105906E-008   28900.50  <-- SCF
     29  -3.90420377E+002 -2.79289644E+000  -5.26624349E-008   28923.23  <-- SCF
     30  -3.90420377E+002 -2.79289641E+000   4.25560107E-009   28947.61  <-- SCF
     31  -3.90420377E+002 -2.79289639E+000  -6.47717564E-012   28974.86  <-- SCF
     32  -3.90420377E+002 -2.79289639E+000  -2.23310781E-008   28997.40  <-- SCF
     33  -3.90420377E+002 -2.79289637E+000  -4.24989729E-009   29019.88  <-- SCF
     34  -3.90420377E+002 -2.79289635E+000   1.03441462E-011   29044.69  <-- SCF
     35  -3.90420377E+002 -2.79289636E+000  -3.86697053E-013   29063.82  <-- SCF
     36  -3.90420377E+002 -2.79289635E+000  -5.22041022E-012   29083.24  <-- SCF
------------------------------------------------------------------------ <-- SCF
 
Final energy, E             =  -390.4203770186     eV
Final free energy (E-TS)    =  -390.4203770186     eV
(energies not corrected for finite basis set)
 
NB est. 0K energy (E-0.5TS)      =  -390.4203770186     eV
 

 ***************** Stress Tensor *****************
 *                                               *
 *          Cartesian components (GPa)           *
 * --------------------------------------------- *
 *             x             y             z     *
 *                                               *
 *  x     -0.011721      0.000051     -0.001084  *
 *  y      0.000051     -0.010259     -0.000041  *
 *  z     -0.001084     -0.000041      0.496542  *
 *                                               *
 *  Pressure:   -0.1582                          *
 *                                               *
 *************************************************

 *********** Constrained Stress Tensor ***********
 *                                               *
 *          Cartesian components (GPa)           *
 * --------------------------------------------- *
 *             x             y             z     *
 *                                               *
 *  x     -0.000000     -0.000000     -0.000452  *
 *  y     -0.000000      0.000000      0.000082  *
 *  z     -0.000452      0.000082      0.496543  *
 *                                               *
 *  Pressure:   -0.1655                          *
 *                                               *
 *************************************************
  
 +------------+-------------+-------------+-----------------+ <-- min LBFGS
 |    Step    |   lambda    |   F.delta'  |    enthalpy     | <-- min LBFGS
 +------------+-------------+-------------+-----------------+ <-- min LBFGS
 |  previous  |    0.000000 |    0.098934 |     -390.419484 | <-- min LBFGS
 | trial step |    1.000000 |    0.098777 |     -390.420376 | <-- min LBFGS
 +------------+-------------+-------------+-----------------+ <-- min LBFGS
  
 LBFGS: finished iteration    30 with enthalpy= -3.90420376E+002 eV
  
 +-----------+-----------------+-----------------+------------+-----+ <-- LBFGS
 | Parameter |      value      |    tolerance    |    units   | OK? | <-- LBFGS
 +-----------+-----------------+-----------------+------------+-----+ <-- LBFGS
 |  dE/ion   |   8.918735E-004 |   2.000000E-005 |         eV | No  | <-- LBFGS
 |   Smax    |   4.965426E-001 |   1.000000E-001 |        GPa | No  | <-- LBFGS
 +-----------+-----------------+-----------------+------------+-----+ <-- LBFGS
  
 LBFGS: WARNING - Geometry optimization failed to converge after         30 steps

================================================================================
 LBFGS: Final Configuration:
================================================================================

                           -------------------------------
                                      Unit Cell
                           -------------------------------
        Real Lattice(A)              Reciprocal Lattice(1/A)
    19.1230501    -0.7864579    -0.0045102        0.327993629  -0.013922938   0.000683545
     0.7854600    18.5034760    -0.0045895        0.013940789   0.338976058  -0.000003735
    -0.0050372     0.0002338     2.4218236        0.000637245   0.000616447   2.594403842

                       Lattice parameters(A)       Cell Angles
                    a =     19.139216          alpha =   90.013725
                    b =     18.520140          beta  =   90.132799
                    c =      2.421829          gamma =   89.924318

                Current cell volume =           858.440687 A**3
                            density =             0.010498 amu/A**3
                                    =             0.017433 g/cm^3

 LBFGS: Final Enthalpy     = -3.90420376E+002 eV
 LBFGS: Final bulk modulus unchanged from initial value
  
  **********************************************************
  *** There were at least     1 warnings during this run ***
  *** => please check the whole of this file carefully!  ***
  **********************************************************

 ************************************** Forces **************************************
 *                                                                                  *
 *                           Cartesian components (eV/A)                            *
 * -------------------------------------------------------------------------------- *
 *                         x                    y                    z              *
 *                                                                                  *
 * Be              1      0.00000              0.00000              0.00000         *
 *                                                                                  *
 ************************************************************************************

 Pseudo atomic calculation performed for Be 1s2 2s2

 Converged in 25 iterations to a total energy of -389.3029 eV
Charge spilling parameter for spin component 1 = 0.39%

            Orbital Populations       
     Ion    Atom   Orbital             Charge
  -------------------------------------------
     Be     1      S                    2.000
     Be     1      S                    1.119
     Be     1      Px                   0.000
     Be     1      Py                   0.000
     Be     1      Pz                   0.881
  -------------------------------------------
                           Total:       4.000
  -------------------------------------------

     Atomic Populations (Mulliken)
     -----------------------------
Species          Ion     s       p       d       f      Total   Charge (e)
==========================================================================
  Be              1     3.119   0.881   0.000   0.000   4.000     0.000
==========================================================================

                 Bond                   Population      Length (A)
======================================================================
======================================================================


Writing analysis data to Be_nanowire.castep_bin

Writing model to Be_nanowire.check
 
 A BibTeX formatted list of references used in this run has been written to 
 Be_nanowire.bib
 
Initialisation time =      4.64 s
Calculation time    =  29106.09 s
Finalisation time   =      8.77 s
Total time          =  29119.51 s
Peak Memory Use     = 2443564 kB
  
Overall parallel efficiency rating: Excellent (95%)                             
  
Data was distributed by:-
k-point (250-way); efficiency rating: Excellent (95%)                           
