 +-------------------------------------------------+
 |                                                 |
 |      CCC   AA    SSS  TTTTT  EEEEE  PPPP        |
 |     C     A  A  S       T    E      P   P       |
 |     C     AAAA   SS     T    EEE    PPPP        |
 |     C     A  A     S    T    E      P           |
 |      CCC  A  A  SSS     T    EEEEE  P           |
 |                                                 |
 +-------------------------------------------------+
 |                                                 |
 | Welcome to Academic Release CASTEP version 22.1 |          
 | Ab Initio Total Energy Program                  |
 |                                                 |
 | Authors:                                        |
 | M. Segall, M. Probert, C. Pickard, P. Hasnip,   |
 | S. Clark, K. Refson, J. R. Yates, M. Payne      |
 |                                                 |
 | Contributors:                                   |
 | P. Lindan, P. Haynes, J. White, V. Milman,      |
 | N. Govind, M. Gibson, P. Tulip, V. Cocula,      |
 | B. Montanari, D. Quigley, M. Glover,            |
 | L. Bernasconi, A. Perlov, M. Plummer,           |
 | E. McNellis, J. Meyer, J. Gale, D. Jochym       |
 | J. Aarons, B. Walker, R. Gillen, D. Jones       |
 | T. Green, I. J. Bush, C. J. Armstrong,          |
 | E. J. Higgins, E. L. Brown, M. S. McFly,        |
 | J. Wilkins, B-C. Shih, P. J. P. Byrne,          |
 | R. J. Maurer, J. C. Womack, J. Dziedzic,        |
 | A. Bartok-Partay, L. LeBlanc, T. K. Stenczel,   |
 | J. Kermode, S. Sturniolo                        |
 |                                                 |
 | Copyright (c) 2000 - 2021                       |
 |                                                 |
 |     Distributed under license from Cambridge    |
 |     Enterprise for academic use only.           |
 |                                                 |
 | Please cite                                     |
 |                                                 |
 |     "First principles methods using CASTEP"     |
 |                                                 |
 |         Zeitschrift fuer Kristallographie       |
 |           220(5-6) pp. 567-570 (2005)           |
 |                                                 |
 | S. J. Clark, M. D. Segall, C. J. Pickard,       |
 | P. J. Hasnip, M. J. Probert, K. Refson,         |
 | M. C. Payne                                     |
 |                                                 |
 |       in all publications arising from          |
 |              your use of CASTEP                 |
 |                                                 |
 +-------------------------------------------------+
 |                                                 |
 |              http://www.castep.org              |
 |                                                 |
 +-------------------------------------------------+



 Compiled for linux_x86_64_gfortran10 on Thu, 07 Oct 2021 22:56:02 +0100
 from code version f361359b0+  default  Mon Sep 27 15:13:22 2021 +0100
 Compiler: GNU Fortran 10.2.0; Optimisation: fast
 MATHLIBS: openblas (LAPACK version 3.9.0)
 FFT Lib : fftw3 version fftw-3.3.8-sse2-avx-avx2-avx2_128
 Fundamental constants values: CODATA 2014

 Run started: Thu, 24 Mar 2022 13:00:29 +0000

 Atomic calculation performed for Be: 1s2 2s2

 Converged in 44 iterations to an ae energy of -399.040 eV

   ============================================================                
   | Pseudopotential Report - Date of generation 24-03-2022   |                
   ------------------------------------------------------------                
   | Element: Be Ionic charge:  4.00 Level of theory: BLYP    |                
   | Atomic Solver: Koelling-Harmon                           |                
   |                                                          |                
   |               Reference Electronic Structure             |                
   |         Orbital         Occupation         Energy        |                
   |            1s              2.000           -3.917        |                
   |            2s              2.000           -0.201        |                
   |                                                          |                
   |                 Pseudopotential Definition               |                
   |        Beta     l      e      Rc     scheme   norm       |                
   |          1      0   -3.917   0.996     qc      0         |                
   |          2      0   -0.201   0.996     qc      0         |                
   |          3      0    0.250   0.996     qc      0         |                
   |          4      1    0.000   0.996     qc      0         |                
   |          5      1    0.250   0.996     qc      0         |                
   |         loc     2    0.000   0.996     pn      0         |                
   |                                                          |                
   | Augmentation charge Rinner = 0.702                       |                
   | No partial core correction                               |                
   ------------------------------------------------------------                
   | "2|1.0|14|16|18|10U:20:21(qc=7)"                         |                
   ------------------------------------------------------------                
   |      Author: Chris J. Pickard, Cambridge University      |                
   ============================================================                

 Atomic calculation performed for C: 1s2 2s2 2p2

 Converged in 56 iterations to an ae energy of -1029.069 eV

   ============================================================                
   | Pseudopotential Report - Date of generation 24-03-2022   |                
   ------------------------------------------------------------                
   | Element: C Ionic charge:  4.00 Level of theory: BLYP     |                
   | Atomic Solver: Koelling-Harmon                           |                
   |                                                          |                
   |               Reference Electronic Structure             |                
   |         Orbital         Occupation         Energy        |                
   |            2s              2.000           -0.500        |                
   |            2p              2.000           -0.192        |                
   |                                                          |                
   |                 Pseudopotential Definition               |                
   |        Beta     l      e      Rc     scheme   norm       |                
   |          1      0   -0.500   1.395     qc      0         |                
   |          2      0    0.250   1.395     qc      0         |                
   |          3      1   -0.192   1.395     qc      0         |                
   |          4      1    0.250   1.395     qc      0         |                
   |         loc     2    0.000   1.395     pn      0         |                
   |                                                          |                
   | Augmentation charge Rinner = 0.983                       |                
   | Partial core correction Rc = 0.983                       |                
   ------------------------------------------------------------                
   | "2|1.4|10|12|13|20:21(qc=7)"                             |                
   ------------------------------------------------------------                
   |      Author: Chris J. Pickard, Cambridge University      |                
   ============================================================                

 Pseudo atomic calculation performed for Be 1s2 2s2

 Converged in 25 iterations to a total energy of -389.3029 eV

 Pseudo atomic calculation performed for C 2s2 2p2

 Converged in 36 iterations to a total energy of -148.5530 eV
 Calculation parallelised over 250 processes.
 Data is distributed by k-point(250-way)

 ************************************ Title ************************************
 

 ***************************** General Parameters ******************************
  
 output verbosity                               : normal  (1)
 write checkpoint data to                       : BeC_tube+wire.check
 type of calculation                            : geometry optimization
 stress calculation                             : off
 density difference calculation                 : off
 electron localisation func (ELF) calculation   : off
 Hirshfeld analysis                             : off
 polarisation (Berry phase) analysis            : off
 molecular orbital projected DOS                : off
 deltaSCF calculation                           : off
 unlimited duration calculation
 timing information                             : on
 memory usage estimate                          : on
 write extra output files                       : on
 write final potential to formatted file        : off
 write final density to formatted file          : off
 write BibTeX reference list                    : on
 write OTFG pseudopotential files               : on
 write electrostatic potential file             : on
 write bands file                               : on
 checkpoint writing                             : both castep_bin and check files
  
 output         length unit                     : A
 output           mass unit                     : amu
 output           time unit                     : ps
 output         charge unit                     : e
 output           spin unit                     : hbar/2
 output         energy unit                     : eV
 output          force unit                     : eV/A
 output       velocity unit                     : A/ps
 output       pressure unit                     : GPa
 output     inv_length unit                     : 1/A
 output      frequency unit                     : cm-1
 output force constant unit                     : eV/A**2
 output         volume unit                     : A**3
 output   IR intensity unit                     : (D/A)**2/amu
 output         dipole unit                     : D
 output         efield unit                     : eV/A/e
 output        entropy unit                     : J/mol/K
 output    efield chi2 unit                     : pm/V
  
 wavefunctions paging                           : none
 random number generator seed                   : randomised (130029396)
 data distribution                              : k-point only
 optimization strategy                          : maximize speed(+++)

 *********************** Exchange-Correlation Parameters ***********************
  
 using functional                               : BLYP
 relativistic treatment                         : Koelling-Harmon
 DFT+D: Semi-empirical dispersion correction    : off

 ************************* Pseudopotential Parameters **************************
  
 pseudopotential representation                 : reciprocal space
 <beta|phi> representation                      : reciprocal space
 spin-orbit coupling                            : off

 **************************** Basis Set Parameters *****************************
  
 plane wave basis set cut-off                   :  1000.0000   eV
 size of standard grid                          :     2.0000
 size of   fine   gmax                          :    32.4018   1/A
 finite basis set correction                    : automatic
 number of sample energies                      :          3
           sample  spacing                      :     5.0000   eV

 **************************** Electronic Parameters ****************************
  
 number of  electrons                           :  84.00    
 net charge of system                           :  0.000    
 treating system as non-spin-polarized
 number of bands                                :         77

 ********************* Electronic Minimization Parameters **********************
  
 Method: Treating system as metallic with density mixing treatment of electrons,
         and number of  SD  steps               :          1
         and number of  CG  steps               :          4
  
 total energy / atom convergence tol.           : 0.1000E-10   eV
 eigen-energy convergence tolerance             : 0.2727E-11   eV
 max force / atom convergence tol.              : ignored
 convergence tolerance window                   :          3   cycles
 max. number of SCF cycles                      :        200
 number of fixed-spin iterations                :         10
 smearing scheme                                : Gaussian
 smearing width                                 : 0.5000E-01   eV
 Fermi energy convergence tolerance             : 0.2721E-13   eV
 periodic dipole correction                     : NONE

 ************************** Density Mixing Parameters **************************
  
 density-mixing scheme                          : Pulay
 max. length of mixing history                  :         20
 charge density mixing amplitude                : 0.8000    
 cut-off energy for mixing                      :  1000.       eV

 *********************** Population Analysis Parameters ************************
  
 Population analysis with cutoff                :  3.000       A
 Population analysis output                     : summary and pdos components

 ********************** Geometry Optimization Parameters ***********************
  
 optimization method                            : LBFGS
 max. no. of LBFGS updates                      : unbounded
 variable cell method                           : fixed basis quality
 max. number of steps                           :         30
 estimated bulk modulus                         :  500.0       GPa
 estimated <frequency>                          :  1668.       cm-1
 geom line minimiser                            : on
 with line minimiser tolerance                  :     0.4000
 total energy convergence tolerance             : 0.2000E-04   eV/atom
        max ionic |force| tolerance             : 0.5000E-01   eV/A
 max ionic |displacement| tolerance             : 0.1000E-02   A
   max |stress component| tolerance             : 0.1000       GPa
 convergence tolerance window                   :          2   steps
 backup results every                           :          5   steps
 write geom trajectory file                     : on

 *******************************************************************************
  

                           -------------------------------
                                      Unit Cell
                           -------------------------------
        Real Lattice(A)                      Reciprocal Lattice(1/A)
    19.1230500    -0.7864580    -0.0047370        0.327993637  -0.013922938   0.000679655
     0.7854600    18.5034760    -0.0046120        0.013940789   0.338976058  -0.000004143
    -0.0050600     0.0002380     2.4467730        0.000661279   0.000611992   2.567949094

                       Lattice parameters(A)       Cell Angles
                    a =     19.139216          alpha =   90.013725
                    b =     18.520140          beta  =   90.132799
                    c =      2.446778          gamma =   89.924318

                       Current cell volume =           867.284252       A**3
                                   density =             0.287364   AMU/A**3
                                           =             0.477179     g/cm^3

                           -------------------------------
                                     Cell Contents
                           -------------------------------
                         Total number of ions in cell =   21
                      Total number of species in cell =    2
                        Max number of any one species =   20

            xxxxxxxxxxxxxxxxxxxxxxxxxxxxxxxxxxxxxxxxxxxxxxxxxxxxxxxxxxxx
            x  Element    Atom        Fractional coordinates of atoms  x
            x            Number           u          v          w      x
            x----------------------------------------------------------x
            x  Be           1         0.457604   0.540465   0.378835   x 
            x  C            1         0.637640   0.516852   0.501116   x 
            x  C            2         0.590200   0.412531   0.000824   x 
            x  C            3         0.491425   0.357645   0.500567   x 
            x  C            4         0.379890   0.371681   0.000353   x 
            x  C            5         0.297847   0.450562   0.500339   x 
            x  C            6         0.276806   0.564321   0.000558   x 
            x  C            7         0.324272   0.668656   0.500952   x 
            x  C            8         0.422972   0.723645   0.001172   x 
            x  C            9         0.534531   0.709457   0.501323   x 
            x  C           10         0.616607   0.630656   0.001135   x 
            x  C           11         0.629078   0.478827   0.000963   x 
            x  C           12         0.561134   0.387077   0.500603   x 
            x  C           13         0.453499   0.354465   0.000219   x 
            x  C           14         0.347090   0.391699   0.500372   x 
            x  C           15         0.283165   0.486860   0.000431   x 
            x  C           16         0.285400   0.602315   0.500675   x 
            x  C           17         0.353265   0.694202   0.001106   x 
            x  C           18         0.460917   0.726674   0.501504   x 
            x  C           19         0.567378   0.689507   0.001383   x 
            x  C           20         0.631263   0.594329   0.501190   x 
            xxxxxxxxxxxxxxxxxxxxxxxxxxxxxxxxxxxxxxxxxxxxxxxxxxxxxxxxxxxx


                         No user defined ionic velocities

                           -------------------------------
                                   Details of Species
                           -------------------------------

                               Mass of species in AMU
                                    Be    9.0121870
                                    C   12.0107000

                          Electric Quadrupole Moment (Barn)
                                    Be    0.0528800 Isotope  9
                                    C    0.0332700 Isotope 11

                          Files used for pseudopotentials:
                                    Be 2|1.0|14|16|18|10U:20:21(qc=7)
                                    C 2|1.4|10|12|13|20:21(qc=7)

                           -------------------------------
                              k-Points For BZ Sampling
                           -------------------------------
                       MP grid size for SCF calculation is  1  1500
                            with an offset of   0.000  0.000  0.000
                       Number of kpoints used =           250

                           -------------------------------
                               Symmetry and Constraints
                           -------------------------------

                      Maximum deviation from symmetry =  0.00000         ANG

                      Number of symmetry operations   =           1
                      Number of ionic constraints     =           3
                      Point group of crystal =     1: C1, 1, 1
                      Space group of crystal =     1: P1, P 1

             Set iprint > 1 for details on symmetry rotations/translations

                         Centre of mass is constrained
             Set iprint > 1 for details of linear ionic constraints

                         Number of cell constraints= 5
                         Cell constraints are:  0 0 3 0 0 0

                         External pressure/stress (GPa)
                          0.00000   0.00000   0.00000
                                    0.00000   0.00000
                                              0.00000
  
+---------------- MEMORY AND SCRATCH DISK ESTIMATES PER PROCESS --------------+
|                                                     Memory          Disk    |
| Baseline code, static data and system overhead      597.0 MB         0.0 MB |
| BLAS internal memory storage                          0.0 MB         0.0 MB |
| Model and support data                             1784.8 MB         0.0 MB |
| Electronic energy minimisation requirements         622.6 MB         0.0 MB |
| Force calculation requirements                      150.3 MB         0.0 MB |
|                                               ----------------------------- |
| Approx. total storage required per process         3004.4 MB         0.0 MB |
|                                                                             |
| Requirements will fluctuate during execution and may exceed these estimates |
+-----------------------------------------------------------------------------+
Calculating finite basis set correction with  3 cut-off energies.
Calculating total energy with cut-off of  990.000 eV.
Calculating approximate eigenstates for fixed initial Hamiltonian
Cut-off for approx. calculation is   89.988 eV
Improving approx. states at cut-off of  494.993 eV
Resetting cut-off to  989.987 eV
------------------------------------------------------------------------ <-- SCF
SCF loop      Energy           Fermi           Energy gain       Timer   <-- SCF
                               energy          per atom          (sec)   <-- SCF
------------------------------------------------------------------------ <-- SCF
Initial  -3.22367877E+003  0.00000000E+000                        87.38  <-- SCF
      1  -3.54028261E+003 -3.98652877E+000   1.50763736E+001     142.19  <-- SCF
      2  -3.54029318E+003 -3.98680426E+000   5.03241006E-004     198.28  <-- SCF
      3  -3.53170351E+003 -3.42792179E+000  -4.09032268E-001     262.55  <-- SCF
      4  -3.53136806E+003 -3.17242246E+000  -1.59733576E-002     325.72  <-- SCF
      5  -3.53127083E+003 -2.80898911E+000  -4.63018570E-003     391.52  <-- SCF
      6  -3.53124165E+003 -2.85238902E+000  -1.38952029E-003     454.58  <-- SCF
      7  -3.53116342E+003 -2.60190426E+000  -3.72515358E-003     516.82  <-- SCF
      8  -3.53108943E+003 -2.18876376E+000  -3.52350520E-003     577.97  <-- SCF
      9  -3.53110102E+003 -2.11367552E+000   5.52074037E-004     641.00  <-- SCF
     10  -3.53110832E+003 -2.02100085E+000   3.47473884E-004     706.20  <-- SCF
     11  -3.53111133E+003 -1.87793181E+000   1.43568463E-004     769.51  <-- SCF
     12  -3.53111561E+003 -1.84211531E+000   2.03636558E-004     831.77  <-- SCF
     13  -3.53112099E+003 -1.82215317E+000   2.56055050E-004     895.07  <-- SCF
     14  -3.53112234E+003 -1.80320641E+000   6.42536744E-005     957.81  <-- SCF
     15  -3.53112085E+003 -1.77536653E+000  -7.05915583E-005    1020.03  <-- SCF
     16  -3.53112087E+003 -1.75942697E+000   7.93716400E-007    1079.62  <-- SCF
     17  -3.53112250E+003 -1.75339735E+000   7.74335955E-005    1140.45  <-- SCF
     18  -3.53112458E+003 -1.75478595E+000   9.92399992E-005    1199.96  <-- SCF
     19  -3.53112570E+003 -1.75383299E+000   5.34760864E-005    1262.92  <-- SCF
     20  -3.53112642E+003 -1.75249419E+000   3.38434526E-005    1326.46  <-- SCF
     21  -3.53112685E+003 -1.75211969E+000   2.06128749E-005    1388.28  <-- SCF
     22  -3.53112707E+003 -1.75219358E+000   1.05358681E-005    1449.93  <-- SCF
     23  -3.53112731E+003 -1.75229857E+000   1.16268351E-005    1513.48  <-- SCF
     24  -3.53112736E+003 -1.75239425E+000   2.39960967E-006    1573.22  <-- SCF
     25  -3.53112732E+003 -1.75235410E+000  -2.01770671E-006    1634.31  <-- SCF
     26  -3.53112732E+003 -1.75234896E+000  -2.77620237E-007    1695.11  <-- SCF
     27  -3.53112727E+003 -1.75237338E+000  -2.05182550E-006    1756.33  <-- SCF
     28  -3.53112712E+003 -1.75238526E+000  -7.44139138E-006    1815.20  <-- SCF
     29  -3.53112701E+003 -1.75234762E+000  -5.30071983E-006    1876.49  <-- SCF
     30  -3.53112698E+003 -1.75235603E+000  -1.20020929E-006    1938.25  <-- SCF
     31  -3.53112698E+003 -1.75236142E+000  -8.94958402E-008    1994.58  <-- SCF
     32  -3.53112698E+003 -1.75236306E+000   1.23538992E-007    2049.22  <-- SCF
     33  -3.53112698E+003 -1.75236156E+000   1.12154336E-007    2105.29  <-- SCF
     34  -3.53112699E+003 -1.75236106E+000   1.89519158E-007    2157.20  <-- SCF
     35  -3.53112699E+003 -1.75236072E+000   2.97651034E-008    2213.37  <-- SCF
     36  -3.53112699E+003 -1.75236075E+000   1.67294721E-007    2266.51  <-- SCF
     37  -3.53112699E+003 -1.75236056E+000   7.11784059E-009    2321.58  <-- SCF
     38  -3.53112699E+003 -1.75236031E+000  -8.64754048E-009    2372.21  <-- SCF
     39  -3.53112699E+003 -1.75236046E+000   6.69866099E-009    2423.05  <-- SCF
     40  -3.53112699E+003 -1.75236109E+000   2.47504528E-009    2473.52  <-- SCF
     41  -3.53112699E+003 -1.75236145E+000   1.00321737E-008    2522.79  <-- SCF
     42  -3.53112699E+003 -1.75236156E+000   7.14347308E-009    2573.54  <-- SCF
     43  -3.53112699E+003 -1.75236182E+000   1.97285471E-009    2622.76  <-- SCF
     44  -3.53112699E+003 -1.75236195E+000   1.48075509E-009    2672.89  <-- SCF
     45  -3.53112699E+003 -1.75236208E+000   1.89142736E-009    2721.86  <-- SCF
     46  -3.53112699E+003 -1.75236212E+000   1.04318712E-008    2770.80  <-- SCF
     47  -3.53112699E+003 -1.75236216E+000  -2.12241440E-010    2819.98  <-- SCF
     48  -3.53112699E+003 -1.75236221E+000  -2.68872303E-009    2868.91  <-- SCF
     49  -3.53112699E+003 -1.75236223E+000   1.37303234E-009    2917.24  <-- SCF
     50  -3.53112699E+003 -1.75236227E+000  -1.46230411E-009    2965.82  <-- SCF
     51  -3.53112699E+003 -1.75236230E+000  -1.42687530E-009    3014.72  <-- SCF
     52  -3.53112699E+003 -1.75236232E+000  -1.01277800E-011    3067.87  <-- SCF
     53  -3.53112699E+003 -1.75236233E+000   7.51297132E-012    3116.01  <-- SCF
     54  -3.53112699E+003 -1.75236234E+000   3.03943884E-010    3163.93  <-- SCF
     55  -3.53112699E+003 -1.75236234E+000  -9.57535561E-013    3212.91  <-- SCF
     56  -3.53112699E+003 -1.75236235E+000  -7.15205407E-011    3261.19  <-- SCF
     57  -3.53112699E+003 -1.75236235E+000   1.47718274E-009    3309.48  <-- SCF
     58  -3.53112699E+003 -1.75236235E+000   4.82450609E-012    3361.51  <-- SCF
     59  -3.53112699E+003 -1.75236236E+000   1.20060228E-011    3407.49  <-- SCF
     60  -3.53112699E+003 -1.75236236E+000  -3.31454617E-013    3449.94  <-- SCF
     61  -3.53112699E+003 -1.75236236E+000  -2.46749548E-012    3492.36  <-- SCF
------------------------------------------------------------------------ <-- SCF
 
Final energy, E             =  -3531.124839239     eV
Final free energy (E-TS)    =  -3531.126992092     eV
(energies not corrected for finite basis set)
 
NB est. 0K energy (E-0.5TS)      =  -3531.125915665     eV
 
Calculating total energy with cut-off of  995.000 eV.
------------------------------------------------------------------------ <-- SCF
SCF loop      Energy           Fermi           Energy gain       Timer   <-- SCF
                               energy          per atom          (sec)   <-- SCF
------------------------------------------------------------------------ <-- SCF
Initial  -3.53112484E+003  0.00000000E+000                      3524.69  <-- SCF
      1  -3.53112705E+003 -1.75236327E+000   1.05245990E-004    3567.44  <-- SCF
      2  -3.53112705E+003 -1.75236327E+000   3.52225773E-010    3615.08  <-- SCF
      3  -3.53112705E+003 -1.75236208E+000   1.01575741E-008    3667.95  <-- SCF
      4  -3.53112705E+003 -1.75236385E+000  -3.94114271E-009    3720.72  <-- SCF
      5  -3.53112705E+003 -1.75236242E+000  -1.56634404E-009    3770.04  <-- SCF
      6  -3.53112705E+003 -1.75236252E+000   2.50288747E-009    3818.20  <-- SCF
      7  -3.53112705E+003 -1.75236229E+000  -1.75586242E-009    3867.10  <-- SCF
      8  -3.53112705E+003 -1.75236231E+000  -1.16009116E-010    3919.25  <-- SCF
      9  -3.53112705E+003 -1.75236234E+000  -6.33446602E-012    3970.03  <-- SCF
     10  -3.53112705E+003 -1.75236234E+000  -2.15077218E-011    4014.39  <-- SCF
     11  -3.53112705E+003 -1.75236234E+000   1.48418012E-011    4059.13  <-- SCF
     12  -3.53112705E+003 -1.75236234E+000   2.46749548E-012    4101.83  <-- SCF
     13  -3.53112705E+003 -1.75236234E+000  -6.96054696E-012    4144.60  <-- SCF
------------------------------------------------------------------------ <-- SCF
 
Final energy, E             =  -3531.124896672     eV
Final free energy (E-TS)    =  -3531.127049523     eV
(energies not corrected for finite basis set)
 
NB est. 0K energy (E-0.5TS)      =  -3531.125973097     eV
 
Calculating total energy with cut-off of 1000.000 eV.
------------------------------------------------------------------------ <-- SCF
SCF loop      Energy           Fermi           Energy gain       Timer   <-- SCF
                               energy          per atom          (sec)   <-- SCF
------------------------------------------------------------------------ <-- SCF
Initial  -3.53112490E+003  0.00000000E+000                      4176.83  <-- SCF
      1  -3.53112710E+003 -1.75236322E+000   1.05121832E-004    4219.14  <-- SCF
      2  -3.53112710E+003 -1.75236322E+000   3.15692109E-010    4271.47  <-- SCF
      3  -3.53112710E+003 -1.75236200E+000   5.71309910E-009    4324.08  <-- SCF
      4  -3.53112710E+003 -1.75236378E+000  -3.80598288E-009    4376.63  <-- SCF
      5  -3.53112710E+003 -1.75236238E+000  -1.34714205E-009    4425.51  <-- SCF
      6  -3.53112710E+003 -1.75236247E+000   2.69432093E-009    4473.27  <-- SCF
      7  -3.53112710E+003 -1.75236223E+000  -2.04695323E-009    4521.47  <-- SCF
      8  -3.53112710E+003 -1.75236225E+000  -7.12406457E-010    4570.33  <-- SCF
      9  -3.53112710E+003 -1.75236227E+000  -5.92935482E-012    4623.16  <-- SCF
     10  -3.53112710E+003 -1.75236227E+000   7.54979961E-012    4668.76  <-- SCF
     11  -3.53112710E+003 -1.75236227E+000  -3.64305453E-010    4717.05  <-- SCF
     12  -3.53112710E+003 -1.75236227E+000   2.68846523E-012    4765.41  <-- SCF
     13  -3.53112710E+003 -1.75236227E+000   1.55783670E-011    4808.15  <-- SCF
     14  -3.53112710E+003 -1.75236226E+000  -9.83315364E-012    4850.67  <-- SCF
     15  -3.53112710E+003 -1.75236226E+000   2.32018232E-012    4893.06  <-- SCF
     16  -3.53112710E+003 -1.75236225E+000  -7.69711278E-012    4937.89  <-- SCF
------------------------------------------------------------------------ <-- SCF
 
Final energy, E             =  -3531.124951381     eV
Final free energy (E-TS)    =  -3531.127104233     eV
(energies not corrected for finite basis set)
 
NB est. 0K energy (E-0.5TS)      =  -3531.126027807     eV
 
 For future reference: finite basis dEtot/dlog(Ecut) =      -0.011047eV
 Total energy corrected for finite basis set =   -3531.127103 eV
 
+---------------- MEMORY AND SCRATCH DISK ESTIMATES PER PROCESS --------------+
|                                                     Memory          Disk    |
| Model and support data                             1770.3 MB         0.0 MB |
| Electronic energy minimisation requirements         622.6 MB         0.0 MB |
| Geometry minimisation requirements                  712.2 MB         0.0 MB |
|                                               ----------------------------- |
| Approx. total storage required per process         3105.1 MB         0.0 MB |
|                                                                             |
| Requirements will fluctuate during execution and may exceed these estimates |
+-----------------------------------------------------------------------------+
 

 ************************************** Forces **************************************
 *                                                                                  *
 *                           Cartesian components (eV/A)                            *
 * -------------------------------------------------------------------------------- *
 *                         x                    y                    z              *
 *                                                                                  *
 * Be              1      0.00020             -0.02337              0.00095         *
 * C               1      0.00700              0.19681              0.01477         *
 * C               2     -0.16711             -0.07322              0.00893         *
 * C               3      0.01630              0.07201              0.00031         *
 * C               4      0.13135             -0.01065              0.01011         *
 * C               5      0.05111              0.03832              0.00973         *
 * C               6     -0.02624             -0.20590             -0.01976         *
 * C               7      0.17033              0.07013             -0.01893         *
 * C               8     -0.02336             -0.07539             -0.00304         *
 * C               9     -0.12717             -0.00395             -0.00128         *
 * C              10     -0.03286             -0.03363              0.01174         *
 * C              11     -0.02370             -0.08029              0.00882         *
 * C              12     -0.06480              0.04998              0.00821         *
 * C              13     -0.11394              0.03729              0.00336         *
 * C              14      0.12515              0.07528             -0.02847         *
 * C              15      0.01082             -0.01372             -0.03062         *
 * C              16      0.04821              0.09612             -0.00137         *
 * C              17      0.06930             -0.03971             -0.00104         *
 * C              18      0.09873             -0.03199             -0.00368         *
 * C              19     -0.11986             -0.06872              0.01420         *
 * C              20     -0.02946              0.02461              0.01705         *
 *                                                                                  *
 ************************************************************************************

 ***************** Stress Tensor *****************
 *                                               *
 *          Cartesian components (GPa)           *
 * --------------------------------------------- *
 *             x             y             z     *
 *                                               *
 *  x      0.452014     -0.052771     -0.085403  *
 *  y     -0.052771      0.197422      0.006800  *
 *  z     -0.085403      0.006800     -1.351232  *
 *                                               *
 *  Pressure:    0.2339                          *
 *                                               *
 *************************************************

 *********** Constrained Stress Tensor ***********
 *                                               *
 *          Cartesian components (GPa)           *
 * --------------------------------------------- *
 *             x             y             z     *
 *                                               *
 *  x      0.000001      0.000000      0.001222  *
 *  y      0.000000     -0.000000     -0.000227  *
 *  z      0.001222     -0.000227     -1.351154  *
 *                                               *
 *  Pressure:    0.4504                          *
 *                                               *
 *************************************************
 LBFGS: finished iteration     0 with enthalpy= -3.53112710E+003 eV
  
 +-----------+-----------------+-----------------+------------+-----+ <-- LBFGS
 | Parameter |      value      |    tolerance    |    units   | OK? | <-- LBFGS
 +-----------+-----------------+-----------------+------------+-----+ <-- LBFGS
 |  dE/ion   |   0.000000E+000 |   2.000000E-005 |         eV | No  | <-- LBFGS
 |  |F|max   |   2.085085E-001 |   5.000000E-002 |       eV/A | No  | <-- LBFGS
 |  |dR|max  |   0.000000E+000 |   1.000000E-003 |          A | No  | <-- LBFGS
 |   Smax    |   1.351154E+000 |   1.000000E-001 |        GPa | No  | <-- LBFGS
 +-----------+-----------------+-----------------+------------+-----+ <-- LBFGS
  

================================================================================
 Starting LBFGS iteration          1 ...
================================================================================
  
 +------------+-------------+-------------+-----------------+ <-- min LBFGS
 |    Step    |   lambda    |   F.delta'  |    enthalpy     | <-- min LBFGS
 +------------+-------------+-------------+-----------------+ <-- min LBFGS
 |  previous  |    0.000000 |    0.349902 |    -3531.127103 | <-- min LBFGS
 +------------+-------------+-------------+-----------------+ <-- min LBFGS
  

--------------------------------------------------------------------------------
 LBFGS: starting iteration         1 with trial guess (lambda=  1.000000)
--------------------------------------------------------------------------------
 
+---------------- MEMORY AND SCRATCH DISK ESTIMATES PER PROCESS --------------+
|                                                     Memory          Disk    |
| Model and support data                             1770.5 MB         0.0 MB |
| Electronic energy minimisation requirements         623.1 MB         0.0 MB |
| Geometry minimisation requirements                  712.7 MB         0.0 MB |
|                                               ----------------------------- |
| Approx. total storage required per process         3106.3 MB         0.0 MB |
|                                                                             |
| Requirements will fluctuate during execution and may exceed these estimates |
+-----------------------------------------------------------------------------+
 

                           -------------------------------
                                      Unit Cell
                           -------------------------------
        Real Lattice(A)              Reciprocal Lattice(1/A)
    19.1230500    -0.7864580    -0.0047570        0.327993638  -0.013922938   0.000679312
     0.7854600    18.5034760    -0.0046140        0.013940789   0.338976058  -0.000004179
    -0.0050620     0.0002384     2.4489770        0.000663370   0.000611604   2.565638046

                       Lattice parameters(A)       Cell Angles
                    a =     19.139216          alpha =   90.013725
                    b =     18.520140          beta  =   90.132799
                    c =      2.448982          gamma =   89.924318

                Current cell volume =           868.065475 A**3
                            density =             0.287105 amu/A**3
                                    =             0.476750 g/cm^3

                           -------------------------------
                                     Cell Contents
                           -------------------------------

            xxxxxxxxxxxxxxxxxxxxxxxxxxxxxxxxxxxxxxxxxxxxxxxxxxxxxxxxxxxxxxxxx
            x  Element         Atom        Fractional coordinates of atoms  x
            x                 Number           u          v          w      x
            x---------------------------------------------------------------x
            x  Be                1         0.457604   0.540454   0.378839   x
            x  C                 1         0.637639   0.516939   0.501166   x
            x  C                 2         0.590130   0.412495   0.000854   x
            x  C                 3         0.491431   0.357677   0.500568   x
            x  C                 4         0.379947   0.371679   0.000387   x
            x  C                 5         0.297869   0.450580   0.500372   x
            x  C                 6         0.276798   0.564229   0.000492   x
            x  C                 7         0.324344   0.668691   0.500889   x
            x  C                 8         0.422963   0.723611   0.001162   x
            x  C                 9         0.534476   0.709453   0.501319   x
            x  C                10         0.616593   0.630640   0.001174   x
            x  C                11         0.629069   0.478791   0.000993   x
            x  C                12         0.561106   0.387098   0.500630   x
            x  C                13         0.453449   0.354480   0.000231   x
            x  C                14         0.347142   0.391735   0.500276   x
            x  C                15         0.283170   0.486854   0.000328   x
            x  C                16         0.285419   0.602359   0.500671   x
            x  C                17         0.353295   0.694185   0.001103   x
            x  C                18         0.460960   0.726661   0.501491   x
            x  C                19         0.567327   0.689474   0.001431   x
            x  C                20         0.631250   0.594339   0.501248   x
            xxxxxxxxxxxxxxxxxxxxxxxxxxxxxxxxxxxxxxxxxxxxxxxxxxxxxxxxxxxxxxxxx


------------------------------------------------------------------------ <-- SCF
SCF loop      Energy           Fermi           Energy gain       Timer   <-- SCF
                               energy          per atom          (sec)   <-- SCF
------------------------------------------------------------------------ <-- SCF
Initial  -3.53112421E+003  0.00000000E+000                      5336.27  <-- SCF
      1  -3.53114233E+003 -1.82533581E+000   8.62969075E-004    5385.42  <-- SCF
      2  -3.53114246E+003 -1.82533677E+000   6.23770178E-006    5458.33  <-- SCF
      3  -3.53113651E+003 -1.77852711E+000  -2.83459066E-004    5519.69  <-- SCF
      4  -3.53113625E+003 -1.79206079E+000  -1.21587192E-005    5576.08  <-- SCF
      5  -3.53113676E+003 -1.78301705E+000   2.43672059E-005    5635.95  <-- SCF
      6  -3.53113712E+003 -1.78135276E+000   1.72600258E-005    5696.93  <-- SCF
      7  -3.53113739E+003 -1.77670119E+000   1.25498739E-005    5760.07  <-- SCF
      8  -3.53113762E+003 -1.77272850E+000   1.10897220E-005    5819.55  <-- SCF
      9  -3.53113764E+003 -1.76822955E+000   9.16907548E-007    5877.67  <-- SCF
     10  -3.53113738E+003 -1.76499309E+000  -1.23652581E-005    5935.82  <-- SCF
     11  -3.53113655E+003 -1.76190874E+000  -3.96013787E-005    5995.15  <-- SCF
     12  -3.53113543E+003 -1.75941033E+000  -5.34139714E-005    6055.96  <-- SCF
     13  -3.53113478E+003 -1.75807757E+000  -3.07447185E-005    6115.50  <-- SCF
     14  -3.53113459E+003 -1.75745160E+000  -9.12171367E-006    6177.11  <-- SCF
     15  -3.53113475E+003 -1.75699681E+000   7.57010172E-006    6238.93  <-- SCF
     16  -3.53113493E+003 -1.75675299E+000   8.52173415E-006    6300.04  <-- SCF
     17  -3.53113503E+003 -1.75652398E+000   4.76613178E-006    6360.85  <-- SCF
     18  -3.53113506E+003 -1.75637195E+000   1.54444892E-006    6422.37  <-- SCF
     19  -3.53113510E+003 -1.75639783E+000   1.94986848E-006    6482.73  <-- SCF
     20  -3.53113508E+003 -1.75638386E+000  -8.23982810E-007    6542.74  <-- SCF
     21  -3.53113510E+003 -1.75635330E+000   5.70965049E-007    6601.89  <-- SCF
     22  -3.53113512E+003 -1.75635300E+000   1.03307425E-006    6660.82  <-- SCF
     23  -3.53113514E+003 -1.75635407E+000   9.86796964E-007    6714.70  <-- SCF
     24  -3.53113515E+003 -1.75635774E+000   6.79270792E-007    6768.14  <-- SCF
     25  -3.53113516E+003 -1.75635688E+000   1.81777115E-007    6824.47  <-- SCF
     26  -3.53113516E+003 -1.75635697E+000   5.71583912E-008    6878.87  <-- SCF
     27  -3.53113516E+003 -1.75635394E+000   1.16781147E-007    6932.56  <-- SCF
     28  -3.53113516E+003 -1.75635533E+000   6.25780793E-008    6986.58  <-- SCF
     29  -3.53113516E+003 -1.75635409E+000   7.72712783E-009    7039.77  <-- SCF
     30  -3.53113516E+003 -1.75635360E+000  -1.00368141E-009    7091.18  <-- SCF
     31  -3.53113516E+003 -1.75635114E+000   2.89617679E-010    7142.98  <-- SCF
     32  -3.53113516E+003 -1.75635089E+000  -1.86499938E-008    7195.14  <-- SCF
     33  -3.53113516E+003 -1.75635104E+000   8.16041268E-009    7246.28  <-- SCF
     34  -3.53113516E+003 -1.75635114E+000   4.76926366E-010    7295.86  <-- SCF
     35  -3.53113516E+003 -1.75635089E+000  -5.05718724E-009    7345.61  <-- SCF
     36  -3.53113516E+003 -1.75635059E+000   5.40503044E-009    7395.33  <-- SCF
     37  -3.53113516E+003 -1.75635046E+000  -1.50848679E-009    7444.95  <-- SCF
     38  -3.53113516E+003 -1.75635035E+000  -4.47320103E-009    7494.35  <-- SCF
     39  -3.53113516E+003 -1.75635041E+000  -2.52553687E-009    7543.69  <-- SCF
     40  -3.53113516E+003 -1.75635043E+000  -4.54092826E-010    7593.03  <-- SCF
     41  -3.53113516E+003 -1.75635044E+000  -4.89705783E-010    7642.64  <-- SCF
     42  -3.53113516E+003 -1.75635042E+000  -2.15504426E-009    7691.88  <-- SCF
     43  -3.53113516E+003 -1.75635042E+000   1.13674202E-009    7741.02  <-- SCF
     44  -3.53113516E+003 -1.75635041E+000   3.13961179E-010    7791.09  <-- SCF
     45  -3.53113516E+003 -1.75635041E+000   1.58335871E-009    7840.33  <-- SCF
     46  -3.53113516E+003 -1.75635041E+000  -6.73957722E-012    7893.54  <-- SCF
     47  -3.53113516E+003 -1.75635041E+000   8.91244637E-012    7939.26  <-- SCF
     48  -3.53113516E+003 -1.75635041E+000  -5.39276662E-010    7987.55  <-- SCF
     49  -3.53113516E+003 -1.75635041E+000  -3.36315952E-010    8037.39  <-- SCF
     50  -3.53113516E+003 -1.75635041E+000   5.89252653E-013    8085.42  <-- SCF
     51  -3.53113516E+003 -1.75635041E+000   2.94626326E-013    8128.21  <-- SCF
------------------------------------------------------------------------ <-- SCF
 
Final energy, E             =  -3531.133010911     eV
Final free energy (E-TS)    =  -3531.135161583     eV
(energies not corrected for finite basis set)
 
NB est. 0K energy (E-0.5TS)      =  -3531.134086247     eV
 

 ************************************** Forces **************************************
 *                                                                                  *
 *                           Cartesian components (eV/A)                            *
 * -------------------------------------------------------------------------------- *
 *                         x                    y                    z              *
 *                                                                                  *
 * Be              1     -0.00008             -0.02267              0.00207         *
 * C               1     -0.01538              0.07086              0.01283         *
 * C               2     -0.11708             -0.02401              0.00872         *
 * C               3     -0.03753              0.05921              0.00161         *
 * C               4      0.06644              0.02311             -0.00363         *
 * C               5      0.06107              0.01935             -0.00671         *
 * C               6      0.00128             -0.06751             -0.01450         *
 * C               7      0.12444              0.02563             -0.01177         *
 * C               8      0.03179             -0.06083             -0.00273         *
 * C               9     -0.06849             -0.03307              0.00396         *
 * C              10     -0.04773             -0.01105              0.01359         *
 * C              11     -0.01784             -0.01443              0.01081         *
 * C              12     -0.08060              0.03420              0.00786         *
 * C              13     -0.02069              0.02936              0.00333         *
 * C              14      0.12288              0.06804             -0.01242         *
 * C              15      0.01713             -0.04304             -0.01645         *
 * C              16      0.03369              0.01763             -0.00915         *
 * C              17      0.08084             -0.02682             -0.00730         *
 * C              18      0.01317             -0.02649             -0.00367         *
 * C              19     -0.11610             -0.06378              0.00854         *
 * C              20     -0.03121              0.04630              0.01504         *
 *                                                                                  *
 ************************************************************************************

 ***************** Stress Tensor *****************
 *                                               *
 *          Cartesian components (GPa)           *
 * --------------------------------------------- *
 *             x             y             z     *
 *                                               *
 *  x      0.434500     -0.043865     -0.083038  *
 *  y     -0.043865      0.213878      0.006057  *
 *  z     -0.083038      0.006057     -1.150412  *
 *                                               *
 *  Pressure:    0.1673                          *
 *                                               *
 *************************************************

 *********** Constrained Stress Tensor ***********
 *                                               *
 *          Cartesian components (GPa)           *
 * --------------------------------------------- *
 *             x             y             z     *
 *                                               *
 *  x      0.000001      0.000000      0.001002  *
 *  y      0.000000     -0.000000     -0.000196  *
 *  z      0.001002     -0.000196     -1.150337  *
 *                                               *
 *  Pressure:    0.3834                          *
 *                                               *
 *************************************************
  
 +------------+-------------+-------------+-----------------+ <-- min LBFGS
 |    Step    |   lambda    |   F.delta'  |    enthalpy     | <-- min LBFGS
 +------------+-------------+-------------+-----------------+ <-- min LBFGS
 |  previous  |    0.000000 |    0.349902 |    -3531.127103 | <-- min LBFGS
 | trial step |    1.000000 |    0.270130 |    -3531.135161 | <-- min LBFGS
 +------------+-------------+-------------+-----------------+ <-- min LBFGS
  
 LBFGS: finished iteration     1 with enthalpy= -3.53113516E+003 eV
  
 +-----------+-----------------+-----------------+------------+-----+ <-- LBFGS
 | Parameter |      value      |    tolerance    |    units   | OK? | <-- LBFGS
 +-----------+-----------------+-----------------+------------+-----+ <-- LBFGS
 |  dE/ion   |   3.836840E-004 |   2.000000E-005 |         eV | No  | <-- LBFGS
 |  |F|max   |   1.410092E-001 |   5.000000E-002 |       eV/A | No  | <-- LBFGS
 |  |dR|max  |   1.717570E-003 |   1.000000E-003 |          A | No  | <-- LBFGS
 |   Smax    |   1.150337E+000 |   1.000000E-001 |        GPa | No  | <-- LBFGS
 +-----------+-----------------+-----------------+------------+-----+ <-- LBFGS
  

================================================================================
 Starting LBFGS iteration          2 ...
================================================================================
  
 +------------+-------------+-------------+-----------------+ <-- min LBFGS
 |    Step    |   lambda    |   F.delta'  |    enthalpy     | <-- min LBFGS
 +------------+-------------+-------------+-----------------+ <-- min LBFGS
 |  previous  |    0.000000 |    0.270185 |    -3531.135161 | <-- min LBFGS
 +------------+-------------+-------------+-----------------+ <-- min LBFGS
  

--------------------------------------------------------------------------------
 LBFGS: starting iteration         2 with trial guess (lambda=  1.000000)
--------------------------------------------------------------------------------
 
+---------------- MEMORY AND SCRATCH DISK ESTIMATES PER PROCESS --------------+
|                                                     Memory          Disk    |
| Model and support data                             1770.7 MB         0.0 MB |
| Electronic energy minimisation requirements         623.5 MB         0.0 MB |
| Geometry minimisation requirements                  713.2 MB         0.0 MB |
|                                               ----------------------------- |
| Approx. total storage required per process         3107.4 MB         0.0 MB |
|                                                                             |
| Requirements will fluctuate during execution and may exceed these estimates |
+-----------------------------------------------------------------------------+
 

                           -------------------------------
                                      Unit Cell
                           -------------------------------
        Real Lattice(A)              Reciprocal Lattice(1/A)
    19.1230500    -0.7864580    -0.0047735        0.327993638  -0.013922938   0.000679029
     0.7854600    18.5034760    -0.0046157        0.013940790   0.338976058  -0.000004210
    -0.0050638     0.0002387     2.4508534        0.000665081   0.000611279   2.563673757

                       Lattice parameters(A)       Cell Angles
                    a =     19.139216          alpha =   90.013725
                    b =     18.520140          beta  =   90.132799
                    c =      2.450859          gamma =   89.924318

                Current cell volume =           868.730587 A**3
                            density =             0.286885 amu/A**3
                                    =             0.476385 g/cm^3

                           -------------------------------
                                     Cell Contents
                           -------------------------------

            xxxxxxxxxxxxxxxxxxxxxxxxxxxxxxxxxxxxxxxxxxxxxxxxxxxxxxxxxxxxxxxxx
            x  Element         Atom        Fractional coordinates of atoms  x
            x                 Number           u          v          w      x
            x---------------------------------------------------------------x
            x  Be                1         0.457605   0.540444   0.378846   x
            x  C                 1         0.637631   0.516971   0.501210   x
            x  C                 2         0.590080   0.412482   0.000883   x
            x  C                 3         0.491414   0.357703   0.500574   x
            x  C                 4         0.379975   0.371691   0.000375   x
            x  C                 5         0.297895   0.450589   0.500350   x
            x  C                 6         0.276800   0.564199   0.000443   x
            x  C                 7         0.324397   0.668704   0.500849   x
            x  C                 8         0.422978   0.723584   0.001153   x
            x  C                 9         0.534447   0.709437   0.501332   x
            x  C                10         0.616573   0.630635   0.001220   x
            x  C                11         0.629061   0.478784   0.001029   x
            x  C                12         0.561070   0.387111   0.500657   x
            x  C                13         0.453440   0.354492   0.000242   x
            x  C                14         0.347194   0.391767   0.500235   x
            x  C                15         0.283178   0.486835   0.000273   x
            x  C                16         0.285433   0.602367   0.500640   x
            x  C                17         0.353330   0.694175   0.001078   x
            x  C                18         0.460966   0.726650   0.501479   x
            x  C                19         0.567279   0.689443   0.001460   x
            x  C                20         0.631235   0.594359   0.501299   x
            xxxxxxxxxxxxxxxxxxxxxxxxxxxxxxxxxxxxxxxxxxxxxxxxxxxxxxxxxxxxxxxxx


------------------------------------------------------------------------ <-- SCF
SCF loop      Energy           Fermi           Energy gain       Timer   <-- SCF
                               energy          per atom          (sec)   <-- SCF
------------------------------------------------------------------------ <-- SCF
Initial  -3.53113416E+003  0.00000000E+000                      8526.37  <-- SCF
      1  -3.53114537E+003 -1.82898396E+000   5.33627404E-004    8575.10  <-- SCF
      2  -3.53114544E+003 -1.82898473E+000   3.13543038E-006    8646.93  <-- SCF
      3  -3.53114166E+003 -1.78221212E+000  -1.79725015E-004    8708.03  <-- SCF
      4  -3.53114183E+003 -1.79653773E+000   8.11714897E-006    8765.37  <-- SCF
      5  -3.53114225E+003 -1.78661229E+000   1.99009187E-005    8823.82  <-- SCF
      6  -3.53114266E+003 -1.78398656E+000   1.94269287E-005    8883.35  <-- SCF
      7  -3.53114293E+003 -1.77960620E+000   1.31989428E-005    8946.69  <-- SCF
      8  -3.53114315E+003 -1.77512276E+000   1.04043318E-005    9005.61  <-- SCF
      9  -3.53114311E+003 -1.77091643E+000  -1.89732438E-006    9063.50  <-- SCF
     10  -3.53114274E+003 -1.76733569E+000  -1.78424892E-005    9122.97  <-- SCF
     11  -3.53114198E+003 -1.76506358E+000  -3.60610968E-005    9183.15  <-- SCF
     12  -3.53114077E+003 -1.76272455E+000  -5.75011481E-005    9244.70  <-- SCF
     13  -3.53114024E+003 -1.76155090E+000  -2.54886638E-005    9304.76  <-- SCF
     14  -3.53114003E+003 -1.76083390E+000  -9.76784044E-006    9366.80  <-- SCF
     15  -3.53114023E+003 -1.76046222E+000   9.44373251E-006    9428.92  <-- SCF
     16  -3.53114040E+003 -1.76014694E+000   7.86394261E-006    9490.42  <-- SCF
     17  -3.53114049E+003 -1.75985301E+000   4.66232819E-006    9550.97  <-- SCF
     18  -3.53114054E+003 -1.75973668E+000   2.09680633E-006    9611.47  <-- SCF
     19  -3.53114055E+003 -1.75977833E+000   4.13473983E-007    9673.25  <-- SCF
     20  -3.53114053E+003 -1.75972962E+000  -6.07178934E-007    9733.16  <-- SCF
     21  -3.53114055E+003 -1.75970976E+000   5.14967670E-007    9793.48  <-- SCF
     22  -3.53114057E+003 -1.75971183E+000   1.08289501E-006    9850.89  <-- SCF
     23  -3.53114059E+003 -1.75971939E+000   1.03491338E-006    9905.95  <-- SCF
     24  -3.53114060E+003 -1.75971938E+000   3.24601020E-007    9963.24  <-- SCF
     25  -3.53114060E+003 -1.75971916E+000   1.50795462E-007   10017.18  <-- SCF
     26  -3.53114060E+003 -1.75971806E+000   5.17747948E-008   10070.97  <-- SCF
     27  -3.53114060E+003 -1.75971684E+000   4.09867204E-008   10125.49  <-- SCF
     28  -3.53114060E+003 -1.75971709E+000   2.40413609E-008   10180.18  <-- SCF
     29  -3.53114060E+003 -1.75971635E+000   1.78278022E-008   10231.48  <-- SCF
     30  -3.53114060E+003 -1.75971644E+000   6.15297620E-009   10282.79  <-- SCF
     31  -3.53114060E+003 -1.75971551E+000   1.76735285E-009   10334.00  <-- SCF
     32  -3.53114060E+003 -1.75971522E+000  -1.60088897E-009   10384.91  <-- SCF
     33  -3.53114060E+003 -1.75971480E+000   5.86114882E-009   10434.76  <-- SCF
     34  -3.53114060E+003 -1.75971463E+000  -9.91892673E-009   10485.62  <-- SCF
     35  -3.53114060E+003 -1.75971446E+000   3.25790426E-009   10535.00  <-- SCF
     36  -3.53114060E+003 -1.75971441E+000  -6.46778443E-010   10584.61  <-- SCF
     37  -3.53114060E+003 -1.75971440E+000   1.19916598E-008   10634.06  <-- SCF
     38  -3.53114060E+003 -1.75971441E+000  -1.79887786E-009   10685.01  <-- SCF
     39  -3.53114060E+003 -1.75971442E+000   3.42569395E-009   10734.39  <-- SCF
     40  -3.53114060E+003 -1.75971442E+000   3.64452766E-010   10784.12  <-- SCF
     41  -3.53114060E+003 -1.75971444E+000  -2.08263984E-010   10833.39  <-- SCF
     42  -3.53114060E+003 -1.75971444E+000   2.54004722E-010   10882.45  <-- SCF
     43  -3.53114060E+003 -1.75971445E+000  -1.18623925E-010   10931.30  <-- SCF
     44  -3.53114060E+003 -1.75971446E+000   2.24652574E-012   10985.18  <-- SCF
     45  -3.53114060E+003 -1.75971446E+000  -5.78204166E-012   11030.67  <-- SCF
------------------------------------------------------------------------ <-- SCF
 
Final energy, E             =  -3531.138455325     eV
Final free energy (E-TS)    =  -3531.140603001     eV
(energies not corrected for finite basis set)
 
NB est. 0K energy (E-0.5TS)      =  -3531.139529163     eV
 

 ************************************** Forces **************************************
 *                                                                                  *
 *                           Cartesian components (eV/A)                            *
 * -------------------------------------------------------------------------------- *
 *                         x                    y                    z              *
 *                                                                                  *
 * Be              1     -0.00197             -0.02206              0.00143         *
 * C               1     -0.02329              0.03211              0.01230         *
 * C               2     -0.09485             -0.00055              0.00862         *
 * C               3     -0.04701              0.05137              0.00265         *
 * C               4      0.04943              0.03445             -0.00608         *
 * C               5      0.06389              0.01142             -0.01025         *
 * C               6      0.01215             -0.02703             -0.01282         *
 * C               7      0.10189              0.00227             -0.01003         *
 * C               8      0.04311             -0.05165             -0.00329         *
 * C               9     -0.05247             -0.04228              0.00500         *
 * C              10     -0.05297             -0.00317              0.01361         *
 * C              11     -0.02201              0.00400              0.01132         *
 * C              12     -0.07747              0.03343              0.00771         *
 * C              13     -0.00039              0.02697              0.00233         *
 * C              14      0.11344              0.06416             -0.00892         *
 * C              15      0.02014             -0.03891             -0.01307         *
 * C              16      0.03433             -0.00303             -0.01109         *
 * C              17      0.07716             -0.02701             -0.00844         *
 * C              18     -0.00416             -0.02563             -0.00275         *
 * C              19     -0.10756             -0.06014              0.00733         *
 * C              20     -0.03141              0.04126              0.01444         *
 *                                                                                  *
 ************************************************************************************

 ***************** Stress Tensor *****************
 *                                               *
 *          Cartesian components (GPa)           *
 * --------------------------------------------- *
 *             x             y             z     *
 *                                               *
 *  x      0.419244     -0.036792     -0.081764  *
 *  y     -0.036792      0.227665      0.005857  *
 *  z     -0.081764      0.005857     -0.988650  *
 *                                               *
 *  Pressure:    0.1139                          *
 *                                               *
 *************************************************

 *********** Constrained Stress Tensor ***********
 *                                               *
 *          Cartesian components (GPa)           *
 * --------------------------------------------- *
 *             x             y             z     *
 *                                               *
 *  x      0.000001      0.000000      0.000824  *
 *  y      0.000000     -0.000000     -0.000171  *
 *  z      0.000824     -0.000171     -0.988576  *
 *                                               *
 *  Pressure:    0.3295                          *
 *                                               *
 *************************************************
  
 +------------+-------------+-------------+-----------------+ <-- min LBFGS
 |    Step    |   lambda    |   F.delta'  |    enthalpy     | <-- min LBFGS
 +------------+-------------+-------------+-----------------+ <-- min LBFGS
 |  previous  |    0.000000 |    0.270185 |    -3531.135161 | <-- min LBFGS
 | trial step |    1.000000 |    0.232106 |    -3531.140602 | <-- min LBFGS
 +------------+-------------+-------------+-----------------+ <-- min LBFGS
  
 LBFGS: finished iteration     2 with enthalpy= -3.53114060E+003 eV
  
 +-----------+-----------------+-----------------+------------+-----+ <-- LBFGS
 | Parameter |      value      |    tolerance    |    units   | OK? | <-- LBFGS
 +-----------+-----------------+-----------------+------------+-----+ <-- LBFGS
 |  dE/ion   |   2.591159E-004 |   2.000000E-005 |         eV | No  | <-- LBFGS
 |  |F|max   |   1.306314E-001 |   5.000000E-002 |       eV/A | No  | <-- LBFGS
 |  |dR|max  |   1.161565E-003 |   1.000000E-003 |          A | No  | <-- LBFGS
 |   Smax    |   9.885760E-001 |   1.000000E-001 |        GPa | No  | <-- LBFGS
 +-----------+-----------------+-----------------+------------+-----+ <-- LBFGS
  

================================================================================
 Starting LBFGS iteration          3 ...
================================================================================
  
 +------------+-------------+-------------+-----------------+ <-- min LBFGS
 |    Step    |   lambda    |   F.delta'  |    enthalpy     | <-- min LBFGS
 +------------+-------------+-------------+-----------------+ <-- min LBFGS
 |  previous  |    0.000000 |    0.233409 |    -3531.140602 | <-- min LBFGS
 +------------+-------------+-------------+-----------------+ <-- min LBFGS
  

--------------------------------------------------------------------------------
 LBFGS: starting iteration         3 with trial guess (lambda=  1.000000)
--------------------------------------------------------------------------------
 
+---------------- MEMORY AND SCRATCH DISK ESTIMATES PER PROCESS --------------+
|                                                     Memory          Disk    |
| Model and support data                             1770.9 MB         0.0 MB |
| Electronic energy minimisation requirements         623.9 MB         0.0 MB |
| Geometry minimisation requirements                  713.7 MB         0.0 MB |
|                                               ----------------------------- |
| Approx. total storage required per process         3108.5 MB         0.0 MB |
|                                                                             |
| Requirements will fluctuate during execution and may exceed these estimates |
+-----------------------------------------------------------------------------+
 

                           -------------------------------
                                      Unit Cell
                           -------------------------------
        Real Lattice(A)              Reciprocal Lattice(1/A)
    19.1230500    -0.7864580    -0.0047872        0.327993639  -0.013922938   0.000678794
     0.7854600    18.5034760    -0.0046172        0.013940790   0.338976058  -0.000004237
    -0.0050653     0.0002390     2.4524659        0.000666485   0.000611004   2.561988089

                       Lattice parameters(A)       Cell Angles
                    a =     19.139216          alpha =   90.013725
                    b =     18.520140          beta  =   90.132799
                    c =      2.452471          gamma =   89.924318

                Current cell volume =           869.302171 A**3
                            density =             0.286697 amu/A**3
                                    =             0.476071 g/cm^3

                           -------------------------------
                                     Cell Contents
                           -------------------------------

            xxxxxxxxxxxxxxxxxxxxxxxxxxxxxxxxxxxxxxxxxxxxxxxxxxxxxxxxxxxxxxxxx
            x  Element         Atom        Fractional coordinates of atoms  x
            x                 Number           u          v          w      x
            x---------------------------------------------------------------x
            x  Be                1         0.457604   0.540434   0.378850   x
            x  C                 1         0.637621   0.516984   0.501251   x
            x  C                 2         0.590039   0.412480   0.000912   x
            x  C                 3         0.491392   0.357725   0.500583   x
            x  C                 4         0.379996   0.371707   0.000355   x
            x  C                 5         0.297922   0.450596   0.500315   x
            x  C                 6         0.276806   0.564188   0.000399   x
            x  C                 7         0.324441   0.668707   0.500816   x
            x  C                 8         0.422997   0.723562   0.001142   x
            x  C                 9         0.534425   0.709417   0.501349   x
            x  C                10         0.616550   0.630632   0.001266   x
            x  C                11         0.629052   0.478785   0.001068   x
            x  C                12         0.561036   0.387125   0.500683   x
            x  C                13         0.453439   0.354504   0.000250   x
            x  C                14         0.347242   0.391798   0.500205   x
            x  C                15         0.283188   0.486818   0.000229   x
            x  C                16         0.285448   0.602367   0.500603   x
            x  C                17         0.353364   0.694164   0.001050   x
            x  C                18         0.460965   0.726638   0.501470   x
            x  C                19         0.567234   0.689415   0.001484   x
            x  C                20         0.631221   0.594377   0.501347   x
            xxxxxxxxxxxxxxxxxxxxxxxxxxxxxxxxxxxxxxxxxxxxxxxxxxxxxxxxxxxxxxxxx


------------------------------------------------------------------------ <-- SCF
SCF loop      Energy           Fermi           Energy gain       Timer   <-- SCF
                               energy          per atom          (sec)   <-- SCF
------------------------------------------------------------------------ <-- SCF
Initial  -3.53113917E+003  0.00000000E+000                     11428.79  <-- SCF
      1  -3.53114887E+003 -1.83205076E+000   4.61987178E-004   11477.65  <-- SCF
      2  -3.53114892E+003 -1.83205144E+000   2.40971149E-006   11549.29  <-- SCF
      3  -3.53114574E+003 -1.78521999E+000  -1.51551576E-004   11610.61  <-- SCF
      4  -3.53114596E+003 -1.79971907E+000   1.06816191E-005   11668.82  <-- SCF
      5  -3.53114636E+003 -1.78988119E+000   1.91603516E-005   11728.10  <-- SCF
      6  -3.53114680E+003 -1.78640325E+000   2.06918174E-005   11787.28  <-- SCF
      7  -3.53114710E+003 -1.78197436E+000   1.41526742E-005   11848.36  <-- SCF
      8  -3.53114729E+003 -1.77734340E+000   9.30835230E-006   11907.88  <-- SCF
      9  -3.53114721E+003 -1.77337113E+000  -3.84267753E-006   11966.07  <-- SCF
     10  -3.53114676E+003 -1.76963491E+000  -2.13234345E-005   12025.29  <-- SCF
     11  -3.53114589E+003 -1.76751808E+000  -4.15636824E-005   12086.02  <-- SCF
     12  -3.53114470E+003 -1.76529090E+000  -5.68939567E-005   12147.09  <-- SCF
     13  -3.53114417E+003 -1.76404567E+000  -2.51723773E-005   12209.63  <-- SCF
     14  -3.53114417E+003 -1.76363501E+000   3.66132872E-008   12271.40  <-- SCF
     15  -3.53114437E+003 -1.76343037E+000   9.84772266E-006   12331.74  <-- SCF
     16  -3.53114453E+003 -1.76290944E+000   7.48206370E-006   12392.93  <-- SCF
     17  -3.53114461E+003 -1.76267361E+000   3.79006224E-006   12452.87  <-- SCF
     18  -3.53114464E+003 -1.76260607E+000   1.19274437E-006   12514.90  <-- SCF
     19  -3.53114465E+003 -1.76261189E+000   4.37420511E-007   12576.57  <-- SCF
     20  -3.53114463E+003 -1.76259990E+000  -5.55207439E-007   12636.29  <-- SCF
     21  -3.53114464E+003 -1.76256176E+000   4.54098202E-007   12695.30  <-- SCF
     22  -3.53114466E+003 -1.76256085E+000   1.02358419E-006   12752.50  <-- SCF
     23  -3.53114468E+003 -1.76256466E+000   8.73745344E-007   12806.07  <-- SCF
     24  -3.53114469E+003 -1.76256713E+000   5.02907510E-007   12862.28  <-- SCF
     25  -3.53114469E+003 -1.76256534E+000   6.24584978E-008   12918.98  <-- SCF
     26  -3.53114470E+003 -1.76256613E+000   1.10500267E-007   12972.30  <-- SCF
     27  -3.53114470E+003 -1.76256494E+000   2.72538559E-008   13026.88  <-- SCF
     28  -3.53114470E+003 -1.76256510E+000   2.63985557E-008   13079.37  <-- SCF
     29  -3.53114470E+003 -1.76256444E+000   8.85742491E-009   13130.58  <-- SCF
     30  -3.53114470E+003 -1.76256447E+000   1.16432273E-008   13181.99  <-- SCF
     31  -3.53114470E+003 -1.76256382E+000  -4.39298901E-009   13233.27  <-- SCF
     32  -3.53114470E+003 -1.76256350E+000  -8.12491020E-009   13284.18  <-- SCF
     33  -3.53114470E+003 -1.76256320E+000  -6.00013879E-009   13334.10  <-- SCF
     34  -3.53114470E+003 -1.76256315E+000  -2.19400860E-009   13383.36  <-- SCF
     35  -3.53114470E+003 -1.76256302E+000   2.81434433E-009   13434.24  <-- SCF
     36  -3.53114470E+003 -1.76256298E+000   1.12269203E-008   13483.57  <-- SCF
     37  -3.53114470E+003 -1.76256295E+000   7.46325313E-010   13534.39  <-- SCF
     38  -3.53114470E+003 -1.76256298E+000   1.52439661E-009   13583.91  <-- SCF
     39  -3.53114470E+003 -1.76256298E+000  -9.70094008E-010   13633.19  <-- SCF
     40  -3.53114470E+003 -1.76256298E+000  -1.46138341E-009   13682.45  <-- SCF
     41  -3.53114470E+003 -1.76256298E+000   5.22372477E-010   13732.23  <-- SCF
     42  -3.53114470E+003 -1.76256299E+000   6.99884838E-010   13780.91  <-- SCF
     43  -3.53114470E+003 -1.76256300E+000  -3.96272409E-011   13832.53  <-- SCF
     44  -3.53114470E+003 -1.76256300E+000  -3.88906751E-011   13881.08  <-- SCF
     45  -3.53114470E+003 -1.76256300E+000   6.62909234E-013   13929.40  <-- SCF
     46  -3.53114470E+003 -1.76256300E+000   8.02856739E-012   13972.60  <-- SCF
     47  -3.53114470E+003 -1.76256300E+000  -5.11913242E-012   14015.48  <-- SCF
     48  -3.53114470E+003 -1.76256300E+000   1.17850531E-012   14058.28  <-- SCF
------------------------------------------------------------------------ <-- SCF
 
Final energy, E             =  -3531.142553845     eV
Final free energy (E-TS)    =  -3531.144698705     eV
(energies not corrected for finite basis set)
 
NB est. 0K energy (E-0.5TS)      =  -3531.143626275     eV
 

 ************************************** Forces **************************************
 *                                                                                  *
 *                           Cartesian components (eV/A)                            *
 * -------------------------------------------------------------------------------- *
 *                         x                    y                    z              *
 *                                                                                  *
 * Be              1     -0.00072             -0.02149              0.00127         *
 * C               1     -0.02702              0.01856              0.01210         *
 * C               2     -0.08318              0.01224              0.00851         *
 * C               3     -0.04531              0.04580              0.00298         *
 * C               4      0.04378              0.03933             -0.00641         *
 * C               5      0.06296              0.01004             -0.01097         *
 * C               6      0.01773             -0.01360             -0.01223         *
 * C               7      0.08914             -0.01088             -0.00953         *
 * C               8      0.04251             -0.04519             -0.00352         *
 * C               9     -0.04696             -0.04574              0.00520         *
 * C              10     -0.05410             -0.00230              0.01330         *
 * C              11     -0.02701              0.01024              0.01139         *
 * C              12     -0.07082              0.03595              0.00763         *
 * C              13      0.00282              0.02588              0.00177         *
 * C              14      0.10375              0.06078             -0.00802         *
 * C              15      0.02268             -0.03047             -0.01213         *
 * C              16      0.03678             -0.00962             -0.01152         *
 * C              17      0.07036             -0.03014             -0.00858         *
 * C              18     -0.00611             -0.02553             -0.00226         *
 * C              19     -0.09919             -0.05680              0.00699         *
 * C              20     -0.03208              0.03294              0.01402         *
 *                                                                                  *
 ************************************************************************************

 ***************** Stress Tensor *****************
 *                                               *
 *          Cartesian components (GPa)           *
 * --------------------------------------------- *
 *             x             y             z     *
 *                                               *
 *  x      0.404975     -0.031029     -0.080665  *
 *  y     -0.031029      0.237473      0.005741  *
 *  z     -0.080665      0.005741     -0.852417  *
 *                                               *
 *  Pressure:    0.0700                          *
 *                                               *
 *************************************************

 *********** Constrained Stress Tensor ***********
 *                                               *
 *          Cartesian components (GPa)           *
 * --------------------------------------------- *
 *             x             y             z     *
 *                                               *
 *  x      0.000000      0.000000      0.000674  *
 *  y      0.000000     -0.000000     -0.000150  *
 *  z      0.000674     -0.000150     -0.852345  *
 *                                               *
 *  Pressure:    0.2841                          *
 *                                               *
 *************************************************
  
 +------------+-------------+-------------+-----------------+ <-- min LBFGS
 |    Step    |   lambda    |   F.delta'  |    enthalpy     | <-- min LBFGS
 +------------+-------------+-------------+-----------------+ <-- min LBFGS
 |  previous  |    0.000000 |    0.233409 |    -3531.140602 | <-- min LBFGS
 | trial step |    1.000000 |    0.204015 |    -3531.144698 | <-- min LBFGS
 +------------+-------------+-------------+-----------------+ <-- min LBFGS
  
 LBFGS: finished iteration     3 with enthalpy= -3.53114470E+003 eV
  
 +-----------+-----------------+-----------------+------------+-----+ <-- LBFGS
 | Parameter |      value      |    tolerance    |    units   | OK? | <-- LBFGS
 +-----------+-----------------+-----------------+------------+-----+ <-- LBFGS
 |  dE/ion   |   1.950330E-004 |   2.000000E-005 |         eV | No  | <-- LBFGS
 |  |F|max   |   1.205078E-001 |   5.000000E-002 |       eV/A | No  | <-- LBFGS
 |  |dR|max  |   1.076076E-003 |   1.000000E-003 |          A | No  | <-- LBFGS
 |   Smax    |   8.523446E-001 |   1.000000E-001 |        GPa | No  | <-- LBFGS
 +-----------+-----------------+-----------------+------------+-----+ <-- LBFGS
  

================================================================================
 Starting LBFGS iteration          4 ...
================================================================================
  
 +------------+-------------+-------------+-----------------+ <-- min LBFGS
 |    Step    |   lambda    |   F.delta'  |    enthalpy     | <-- min LBFGS
 +------------+-------------+-------------+-----------------+ <-- min LBFGS
[...]
     48  -3.53116106E+003 -1.77665554E+000  -8.21270885E-012   65021.08  <-- SCF
     49  -3.53116106E+003 -1.77665554E+000  -2.65163694E-012   65063.81  <-- SCF
     50  -3.53116106E+003 -1.77665554E+000   6.77640551E-012   65106.53  <-- SCF
------------------------------------------------------------------------ <-- SCF
 
Final energy, E             =  -3531.158928756     eV
Final free energy (E-TS)    =  -3531.161058068     eV
(energies not corrected for finite basis set)
 
NB est. 0K energy (E-0.5TS)      =  -3531.159993412     eV
 

 ************************************** Forces **************************************
 *                                                                                  *
 *                           Cartesian components (eV/A)                            *
 * -------------------------------------------------------------------------------- *
 *                         x                    y                    z              *
 *                                                                                  *
 * Be              1     -0.00523             -0.01813              0.00310         *
 * C               1     -0.02805              0.00619              0.00992         *
 * C               2     -0.03640              0.03113              0.00703         *
 * C               3     -0.00780              0.01728              0.00183         *
 * C               4      0.02139              0.03245             -0.00459         *
 * C               5      0.03412              0.01788             -0.00892         *
 * C               6      0.02750             -0.00353             -0.00997         *
 * C               7      0.03789             -0.02963             -0.00766         *
 * C               8      0.00833             -0.01593             -0.00253         *
 * C               9     -0.02149             -0.03196              0.00414         *
 * C              10     -0.03286             -0.01480              0.00920         *
 * C              11     -0.03196              0.01574              0.00951         *
 * C              12     -0.02663              0.03343              0.00601         *
 * C              13      0.00302              0.01526              0.00036         *
 * C              14      0.03485              0.03391             -0.00581         *
 * C              15      0.02869              0.00633             -0.00952         *
 * C              16      0.03292             -0.01362             -0.00969         *
 * C              17      0.02741             -0.03147             -0.00670         *
 * C              18     -0.00274             -0.01515             -0.00103         *
 * C              19     -0.03414             -0.03170              0.00548         *
 * C              20     -0.02883             -0.00369              0.00983         *
 *                                                                                  *
 ************************************************************************************

 ***************** Stress Tensor *****************
 *                                               *
 *          Cartesian components (GPa)           *
 * --------------------------------------------- *
 *             x             y             z     *
 *                                               *
 *  x      0.234137     -0.004165     -0.063925  *
 *  y     -0.004165      0.183272      0.004263  *
 *  z     -0.063925      0.004263     -0.098308  *
 *                                               *
 *  Pressure:   -0.1064                          *
 *                                               *
 *************************************************

 *********** Constrained Stress Tensor ***********
 *                                               *
 *          Cartesian components (GPa)           *
 * --------------------------------------------- *
 *             x             y             z     *
 *                                               *
 *  x      0.000000      0.000000     -0.000108  *
 *  y      0.000000     -0.000000     -0.000030  *
 *  z     -0.000108     -0.000030     -0.098250  *
 *                                               *
 *  Pressure:    0.0328                          *
 *                                               *
 *************************************************
  
 +------------+-------------+-------------+-----------------+ <-- min LBFGS
 |    Step    |   lambda    |   F.delta'  |    enthalpy     | <-- min LBFGS
 +------------+-------------+-------------+-----------------+ <-- min LBFGS
 |  previous  |    0.000000 |    0.068132 |    -3531.160778 | <-- min LBFGS
 | trial step |    1.000000 |    0.065001 |    -3531.161057 | <-- min LBFGS
 +------------+-------------+-------------+-----------------+ <-- min LBFGS
  
 LBFGS: finished iteration    19 with enthalpy= -3.53116106E+003 eV
  
 +-----------+-----------------+-----------------+------------+-----+ <-- LBFGS
 | Parameter |      value      |    tolerance    |    units   | OK? | <-- LBFGS
 +-----------+-----------------+-----------------+------------+-----+ <-- LBFGS
 |  dE/ion   |   1.330074E-005 |   2.000000E-005 |         eV | Yes | <-- LBFGS
 |  |F|max   |   4.896874E-002 |   5.000000E-002 |       eV/A | Yes | <-- LBFGS
 |  |dR|max  |   4.202089E-004 |   1.000000E-003 |          A | Yes | <-- LBFGS
 |   Smax    |   9.825039E-002 |   1.000000E-001 |        GPa | Yes | <-- LBFGS
 +-----------+-----------------+-----------------+------------+-----+ <-- LBFGS
  
 LBFGS: Geometry optimization completed successfully.

================================================================================
 LBFGS: Final Configuration:
================================================================================

                           -------------------------------
                                      Unit Cell
                           -------------------------------
        Real Lattice(A)              Reciprocal Lattice(1/A)
    19.1230500    -0.7864580    -0.0048372        0.327993641  -0.013922938   0.000677937
     0.7854600    18.5034760    -0.0046266        0.013940790   0.338976058  -0.000004408
    -0.0050784     0.0002409     2.4619122        0.000670644   0.000609678   2.552157903

                       Lattice parameters(A)       Cell Angles
                    a =     19.139216          alpha =   90.013725
                    b =     18.520140          beta  =   90.132799
                    c =      2.461917          gamma =   89.924318

                Current cell volume =           872.650475 A**3
                            density =             0.285597 amu/A**3
                                    =             0.474245 g/cm^3

                           -------------------------------
                                     Cell Contents
                           -------------------------------

            xxxxxxxxxxxxxxxxxxxxxxxxxxxxxxxxxxxxxxxxxxxxxxxxxxxxxxxxxxxxxxxxx
            x  Element         Atom        Fractional coordinates of atoms  x
            x                 Number           u          v          w      x
            x---------------------------------------------------------------x
            x  Be                1         0.457593   0.540296   0.378935   x
            x  C                 1         0.637406   0.517037   0.501855   x
            x  C                 2         0.589653   0.412683   0.001338   x
            x  C                 3         0.491236   0.357920   0.500715   x
            x  C                 4         0.380199   0.372002   0.000062   x
            x  C                 5         0.298244   0.450731   0.499771   x
            x  C                 6         0.276995   0.564158  -0.000199   x
            x  C                 7         0.324847   0.668514   0.500352   x
            x  C                 8         0.423150   0.723378   0.000976   x
            x  C                 9         0.534214   0.709108   0.501606   x
            x  C                10         0.616250   0.630533   0.001869   x
            x  C                11         0.628806   0.478892   0.001642   x
            x  C                12         0.560725   0.387393   0.501056   x
            x  C                13         0.453453   0.354652   0.000297   x
            x  C                14         0.347651   0.392147   0.499841   x
            x  C                15         0.283393   0.486799  -0.000351   x
            x  C                16         0.285717   0.602272   0.500023   x
            x  C                17         0.353676   0.693920   0.000636   x
            x  C                18         0.460946   0.726487   0.501390   x
            x  C                19         0.566834   0.689087   0.001824   x
            x  C                20         0.630993   0.594415   0.501988   x
            xxxxxxxxxxxxxxxxxxxxxxxxxxxxxxxxxxxxxxxxxxxxxxxxxxxxxxxxxxxxxxxxx


 LBFGS: Final Enthalpy     = -3.53116106E+003 eV
 LBFGS: Final <frequency>  unchanged from initial value
 LBFGS: Final bulk modulus unchanged from initial value

 ************************************** Forces **************************************
 *                                                                                  *
 *                           Cartesian components (eV/A)                            *
 * -------------------------------------------------------------------------------- *
 *                         x                    y                    z              *
 *                                                                                  *
 * Be              1     -0.00523             -0.01813              0.00310         *
 * C               1     -0.02805              0.00619              0.00992         *
 * C               2     -0.03640              0.03113              0.00703         *
 * C               3     -0.00780              0.01728              0.00183         *
 * C               4      0.02139              0.03245             -0.00459         *
 * C               5      0.03412              0.01788             -0.00892         *
 * C               6      0.02750             -0.00353             -0.00997         *
 * C               7      0.03789             -0.02963             -0.00766         *
 * C               8      0.00833             -0.01593             -0.00253         *
 * C               9     -0.02149             -0.03196              0.00414         *
 * C              10     -0.03286             -0.01480              0.00920         *
 * C              11     -0.03196              0.01574              0.00951         *
 * C              12     -0.02663              0.03343              0.00601         *
 * C              13      0.00302              0.01526              0.00036         *
 * C              14      0.03485              0.03391             -0.00581         *
 * C              15      0.02869              0.00633             -0.00952         *
 * C              16      0.03292             -0.01362             -0.00969         *
 * C              17      0.02741             -0.03147             -0.00670         *
 * C              18     -0.00274             -0.01515             -0.00103         *
 * C              19     -0.03414             -0.03170              0.00548         *
 * C              20     -0.02883             -0.00369              0.00983         *
 *                                                                                  *
 ************************************************************************************

 Pseudo atomic calculation performed for Be 1s2 2s2

 Converged in 25 iterations to a total energy of -389.3029 eV

 Pseudo atomic calculation performed for C 2s2 2p2

 Converged in 36 iterations to a total energy of -148.5530 eV
Charge spilling parameter for spin component 1 = 0.99%

            Orbital Populations       
     Ion    Atom   Orbital             Charge
  -------------------------------------------
     Be     1      S                    2.000
     Be     1      S                    1.108
     Be     1      Px                  -0.053
     Be     1      Py                  -0.053
     Be     1      Pz                   0.807
      C     1      S                    1.059
      C     1      Px                   1.005
      C     1      Py                   0.973
      C     1      Pz                   0.973
      C     2      S                    1.059
      C     2      Px                   0.985
      C     2      Py                   0.992
      C     2      Pz                   0.973
      C     3      S                    1.059
      C     3      Px                   0.971
      C     3      Py                   1.007
      C     3      Pz                   0.973
      C     4      S                    1.059
      C     4      Px                   0.981
      C     4      Py                   0.996
      C     4      Pz                   0.973
      C     5      S                    1.059
      C     5      Px                   1.002
      C     5      Py                   0.976
      C     5      Pz                   0.973
      C     6      S                    1.059
      C     6      Px                   1.003
      C     6      Py                   0.973
      C     6      Pz                   0.973
      C     7      S                    1.059
      C     7      Px                   0.986
      C     7      Py                   0.992
      C     7      Pz                   0.973
      C     8      S                    1.059
      C     8      Px                   0.971
      C     8      Py                   1.006
      C     8      Pz                   0.973
      C     9      S                    1.059
      C     9      Px                   0.981
      C     9      Py                   0.998
      C     9      Pz                   0.973
      C    10      S                    1.059
      C    10      Px                   1.001
      C    10      Py                   0.976
      C    10      Pz                   0.973
      C    11      S                    1.059
      C    11      Px                   1.003
      C    11      Py                   0.974
      C    11      Pz                   0.973
      C    12      S                    1.059
      C    12      Px                   0.983
      C    12      Py                   0.995
      C    12      Pz                   0.973
      C    13      S                    1.059
      C    13      Px                   0.971
      C    13      Py                   1.006
      C    13      Pz                   0.973
      C    14      S                    1.060
      C    14      Px                   0.983
      C    14      Py                   0.995
      C    14      Pz                   0.973
      C    15      S                    1.059
      C    15      Px                   1.002
      C    15      Py                   0.975
      C    15      Pz                   0.973
      C    16      S                    1.059
      C    16      Px                   1.004
      C    16      Py                   0.974
      C    16      Pz                   0.973
      C    17      S                    1.059
      C    17      Px                   0.983
      C    17      Py                   0.993
      C    17      Pz                   0.973
      C    18      S                    1.059
      C    18      Px                   0.971
      C    18      Py                   1.007
      C    18      Pz                   0.973
      C    19      S                    1.059
      C    19      Px                   0.982
      C    19      Py                   0.994
      C    19      Pz                   0.973
      C    20      S                    1.059
      C    20      Px                   1.003
      C    20      Py                   0.975
      C    20      Pz                   0.973
  -------------------------------------------
                           Total:      83.999
  -------------------------------------------

     Atomic Populations (Mulliken)
     -----------------------------
Species          Ion     s       p       d       f      Total   Charge (e)
==========================================================================
  Be              1     3.107   0.701   0.000   0.000   3.809     0.191
  C               1     1.059   2.951   0.000   0.000   4.010    -0.010
  C               2     1.059   2.950   0.000   0.000   4.008    -0.008
  C               3     1.059   2.952   0.000   0.000   4.011    -0.011
  C               4     1.059   2.950   0.000   0.000   4.009    -0.009
  C               5     1.059   2.951   0.000   0.000   4.010    -0.010
  C               6     1.059   2.949   0.000   0.000   4.008    -0.008
  C               7     1.059   2.951   0.000   0.000   4.010    -0.010
  C               8     1.059   2.950   0.000   0.000   4.009    -0.009
  C               9     1.059   2.951   0.000   0.000   4.010    -0.010
  C              10     1.059   2.949   0.000   0.000   4.008    -0.008
  C              11     1.059   2.949   0.000   0.000   4.008    -0.008
  C              12     1.059   2.951   0.000   0.000   4.011    -0.011
  C              13     1.059   2.950   0.000   0.000   4.009    -0.009
  C              14     1.060   2.951   0.000   0.000   4.011    -0.011
  C              15     1.059   2.950   0.000   0.000   4.008    -0.008
  C              16     1.059   2.951   0.000   0.000   4.010    -0.010
  C              17     1.059   2.950   0.000   0.000   4.008    -0.008
  C              18     1.059   2.952   0.000   0.000   4.011    -0.011
  C              19     1.059   2.950   0.000   0.000   4.008    -0.008
  C              20     1.059   2.951   0.000   0.000   4.010    -0.010
==========================================================================

                 Bond                   Population      Length (A)
======================================================================
              C 4  -- C 14                   2.18        1.42825
              C 9  -- C 19                   2.18        1.42825
              C 7  -- C 17                   2.18        1.42831
              C 2  -- C 12                   2.18        1.42832
              C 8  -- C 18                   2.19        1.42839
              C 3  -- C 13                   2.19        1.42840
              C 5  -- C 15                   2.18        1.42873
              C 10 -- C 20                   2.19        1.42874
              C 6  -- C 16                   2.18        1.42887
              C 1  -- C 11                   2.19        1.42887
              C 6  -- C 15                   0.88        1.43776
              C 2  -- C 11                   0.88        1.43790
              C 8  -- C 17                   0.88        1.43792
              C 4  -- C 13                   0.88        1.43797
              C 10 -- C 19                   0.88        1.43799
              C 1  -- C 20                   0.88        1.43815
              C 7  -- C 16                   0.88        1.43818
              C 5  -- C 14                   0.88        1.43828
              C 3  -- C 12                   0.88        1.43829
              C 9  -- C 18                   0.88        1.43834
======================================================================


Writing analysis data to BeC_tube+wire.castep_bin

Writing model to BeC_tube+wire.check
 
 A BibTeX formatted list of references used in this run has been written to 
 BeC_tube+wire.bib
 
Initialisation time =      9.23 s
Calculation time    =  65515.32 s
Finalisation time   =     27.54 s
Total time          =  65552.10 s
Peak Memory Use     = 3465964 kB
  
Overall parallel efficiency rating: Excellent (96%)                             
  
Data was distributed by:-
k-point (250-way); efficiency rating: Excellent (96%)                           
