 +-------------------------------------------------+
 |                                                 |
 |      CCC   AA    SSS  TTTTT  EEEEE  PPPP        |
 |     C     A  A  S       T    E      P   P       |
 |     C     AAAA   SS     T    EEE    PPPP        |
 |     C     A  A     S    T    E      P           |
 |      CCC  A  A  SSS     T    EEEEE  P           |
 |                                                 |
 +-------------------------------------------------+
 |                                                 |
 | Welcome to Academic Release CASTEP version 22.1 |          
 | Ab Initio Total Energy Program                  |
 |                                                 |
 | Authors:                                        |
 | M. Segall, M. Probert, C. Pickard, P. Hasnip,   |
 | S. Clark, K. Refson, J. R. Yates, M. Payne      |
 |                                                 |
 | Contributors:                                   |
 | P. Lindan, P. Haynes, J. White, V. Milman,      |
 | N. Govind, M. Gibson, P. Tulip, V. Cocula,      |
 | B. Montanari, D. Quigley, M. Glover,            |
 | L. Bernasconi, A. Perlov, M. Plummer,           |
 | E. McNellis, J. Meyer, J. Gale, D. Jochym       |
 | J. Aarons, B. Walker, R. Gillen, D. Jones       |
 | T. Green, I. J. Bush, C. J. Armstrong,          |
 | E. J. Higgins, E. L. Brown, M. S. McFly,        |
 | J. Wilkins, B-C. Shih, P. J. P. Byrne,          |
 | R. J. Maurer, J. C. Womack, J. Dziedzic,        |
 | A. Bartok-Partay, L. LeBlanc, T. K. Stenczel,   |
 | J. Kermode, S. Sturniolo                        |
 |                                                 |
 | Copyright (c) 2000 - 2021                       |
 |                                                 |
 |     Distributed under license from Cambridge    |
 |     Enterprise for academic use only.           |
 |                                                 |
 | Please cite                                     |
 |                                                 |
 |     "First principles methods using CASTEP"     |
 |                                                 |
 |         Zeitschrift fuer Kristallographie       |
 |           220(5-6) pp. 567-570 (2005)           |
 |                                                 |
 | S. J. Clark, M. D. Segall, C. J. Pickard,       |
 | P. J. Hasnip, M. J. Probert, K. Refson,         |
 | M. C. Payne                                     |
 |                                                 |
 |       in all publications arising from          |
 |              your use of CASTEP                 |
 |                                                 |
 +-------------------------------------------------+
 |                                                 |
 |              http://www.castep.org              |
 |                                                 |
 +-------------------------------------------------+



 Compiled for linux_x86_64_gfortran10 on Thu, 07 Oct 2021 22:56:02 +0100
 from code version f361359b0+  default  Mon Sep 27 15:13:22 2021 +0100
 Compiler: GNU Fortran 10.2.0; Optimisation: fast
 MATHLIBS: openblas (LAPACK version 3.9.0)
 FFT Lib : fftw3 version fftw-3.3.8-sse2-avx-avx2-avx2_128
 Fundamental constants values: CODATA 2014

 Run started: Thu, 24 Mar 2022 14:56:31 +0000

 Atomic calculation performed for C: 1s2 2s2 2p2

 Converged in 56 iterations to an ae energy of -1029.069 eV

   ============================================================                
   | Pseudopotential Report - Date of generation 24-03-2022   |                
   ------------------------------------------------------------                
   | Element: C Ionic charge:  4.00 Level of theory: BLYP     |                
   | Atomic Solver: Koelling-Harmon                           |                
   |                                                          |                
   |               Reference Electronic Structure             |                
   |         Orbital         Occupation         Energy        |                
   |            2s              2.000           -0.500        |                
   |            2p              2.000           -0.192        |                
   |                                                          |                
   |                 Pseudopotential Definition               |                
   |        Beta     l      e      Rc     scheme   norm       |                
   |          1      0   -0.500   1.395     qc      0         |                
   |          2      0    0.250   1.395     qc      0         |                
   |          3      1   -0.192   1.395     qc      0         |                
   |          4      1    0.250   1.395     qc      0         |                
   |         loc     2    0.000   1.395     pn      0         |                
   |                                                          |                
   | Augmentation charge Rinner = 0.983                       |                
   | Partial core correction Rc = 0.983                       |                
   ------------------------------------------------------------                
   | "2|1.4|10|12|13|20:21(qc=7)"                             |                
   ------------------------------------------------------------                
   |      Author: Chris J. Pickard, Cambridge University      |                
   ============================================================                

 Pseudo atomic calculation performed for C 2s2 2p2

 Converged in 36 iterations to a total energy of -148.5530 eV
 Calculation parallelised over 250 processes.
 Data is distributed by k-point(250-way)

 ************************************ Title ************************************
 

 ***************************** General Parameters ******************************
  
 output verbosity                               : normal  (1)
 write checkpoint data to                       : C_nanotube.check
 type of calculation                            : geometry optimization
 stress calculation                             : off
 density difference calculation                 : off
 electron localisation func (ELF) calculation   : off
 Hirshfeld analysis                             : off
 polarisation (Berry phase) analysis            : off
 molecular orbital projected DOS                : off
 deltaSCF calculation                           : off
 unlimited duration calculation
 timing information                             : on
 memory usage estimate                          : on
 write extra output files                       : on
 write final potential to formatted file        : off
 write final density to formatted file          : off
 write BibTeX reference list                    : on
 write OTFG pseudopotential files               : on
 write electrostatic potential file             : on
 write bands file                               : on
 checkpoint writing                             : both castep_bin and check files
  
 output         length unit                     : A
 output           mass unit                     : amu
 output           time unit                     : ps
 output         charge unit                     : e
 output           spin unit                     : hbar/2
 output         energy unit                     : eV
 output          force unit                     : eV/A
 output       velocity unit                     : A/ps
 output       pressure unit                     : GPa
 output     inv_length unit                     : 1/A
 output      frequency unit                     : cm-1
 output force constant unit                     : eV/A**2
 output         volume unit                     : A**3
 output   IR intensity unit                     : (D/A)**2/amu
 output         dipole unit                     : D
 output         efield unit                     : eV/A/e
 output        entropy unit                     : J/mol/K
 output    efield chi2 unit                     : pm/V
  
 wavefunctions paging                           : none
 random number generator seed                   : randomised (145631597)
 data distribution                              : k-point only
 optimization strategy                          : maximize speed(+++)

 *********************** Exchange-Correlation Parameters ***********************
  
 using functional                               : BLYP
 relativistic treatment                         : Koelling-Harmon
 DFT+D: Semi-empirical dispersion correction    : off

 ************************* Pseudopotential Parameters **************************
  
 pseudopotential representation                 : reciprocal space
 <beta|phi> representation                      : reciprocal space
 spin-orbit coupling                            : off

 **************************** Basis Set Parameters *****************************
  
 plane wave basis set cut-off                   :  1000.0000   eV
 size of standard grid                          :     2.0000
 size of   fine   gmax                          :    32.4018   1/A
 finite basis set correction                    : automatic
 number of sample energies                      :          3
           sample  spacing                      :     5.0000   eV

 **************************** Electronic Parameters ****************************
  
 number of  electrons                           :  80.00    
 net charge of system                           :  0.000    
 treating system as non-spin-polarized
 number of bands                                :         75

 ********************* Electronic Minimization Parameters **********************
  
 Method: Treating system as metallic with density mixing treatment of electrons,
         and number of  SD  steps               :          1
         and number of  CG  steps               :          4
  
 total energy / atom convergence tol.           : 0.1000E-10   eV
 eigen-energy convergence tolerance             : 0.2667E-11   eV
 max force / atom convergence tol.              : ignored
 convergence tolerance window                   :          3   cycles
 max. number of SCF cycles                      :        200
 number of fixed-spin iterations                :         10
 smearing scheme                                : Gaussian
 smearing width                                 : 0.5000E-01   eV
 Fermi energy convergence tolerance             : 0.2721E-13   eV
 periodic dipole correction                     : NONE

 ************************** Density Mixing Parameters **************************
  
 density-mixing scheme                          : Pulay
 max. length of mixing history                  :         20
 charge density mixing amplitude                : 0.8000    
 cut-off energy for mixing                      :  1000.       eV

 *********************** Population Analysis Parameters ************************
  
 Population analysis with cutoff                :  3.000       A
 Population analysis output                     : summary and pdos components

 ********************** Geometry Optimization Parameters ***********************
  
 optimization method                            : LBFGS
 max. no. of LBFGS updates                      : unbounded
 variable cell method                           : fixed basis quality
 max. number of steps                           :         30
 estimated bulk modulus                         :  500.0       GPa
 estimated <frequency>                          :  1668.       cm-1
 geom line minimiser                            : on
 with line minimiser tolerance                  :     0.4000
 total energy convergence tolerance             : 0.2000E-04   eV/atom
        max ionic |force| tolerance             : 0.5000E-01   eV/A
 max ionic |displacement| tolerance             : 0.1000E-02   A
   max |stress component| tolerance             : 0.1000       GPa
 convergence tolerance window                   :          2   steps
 backup results every                           :          5   steps
 write geom trajectory file                     : on

 *******************************************************************************
  

                           -------------------------------
                                      Unit Cell
                           -------------------------------
        Real Lattice(A)                      Reciprocal Lattice(1/A)
    19.1230500    -0.7864580    -0.0047370        0.327993637  -0.013922938   0.000679655
     0.7854600    18.5034760    -0.0046120        0.013940789   0.338976058  -0.000004143
    -0.0050600     0.0002380     2.4467730        0.000661279   0.000611992   2.567949094

                       Lattice parameters(A)       Cell Angles
                    a =     19.139216          alpha =   90.013725
                    b =     18.520140          beta  =   90.132799
                    c =      2.446778          gamma =   89.924318

                       Current cell volume =           867.284252       A**3
                                   density =             0.276973   AMU/A**3
                                           =             0.459924     g/cm^3

                           -------------------------------
                                     Cell Contents
                           -------------------------------
                         Total number of ions in cell =   20
                      Total number of species in cell =    1
                        Max number of any one species =   20

            xxxxxxxxxxxxxxxxxxxxxxxxxxxxxxxxxxxxxxxxxxxxxxxxxxxxxxxxxxxx
            x  Element    Atom        Fractional coordinates of atoms  x
            x            Number           u          v          w      x
            x----------------------------------------------------------x
            x  C            1         0.637640   0.516852   0.501116   x 
            x  C            2         0.590200   0.412531   0.000824   x 
            x  C            3         0.491425   0.357645   0.500567   x 
            x  C            4         0.379890   0.371681   0.000353   x 
            x  C            5         0.297847   0.450562   0.500339   x 
            x  C            6         0.276806   0.564321   0.000558   x 
            x  C            7         0.324272   0.668656   0.500952   x 
            x  C            8         0.422972   0.723645   0.001172   x 
            x  C            9         0.534531   0.709457   0.501323   x 
            x  C           10         0.616607   0.630656   0.001135   x 
            x  C           11         0.629078   0.478827   0.000963   x 
            x  C           12         0.561134   0.387077   0.500603   x 
            x  C           13         0.453499   0.354465   0.000219   x 
            x  C           14         0.347090   0.391699   0.500372   x 
            x  C           15         0.283165   0.486860   0.000431   x 
            x  C           16         0.285400   0.602315   0.500675   x 
            x  C           17         0.353265   0.694202   0.001106   x 
            x  C           18         0.460917   0.726674   0.501504   x 
            x  C           19         0.567378   0.689507   0.001383   x 
            x  C           20         0.631263   0.594329   0.501190   x 
            xxxxxxxxxxxxxxxxxxxxxxxxxxxxxxxxxxxxxxxxxxxxxxxxxxxxxxxxxxxx


                         No user defined ionic velocities

                           -------------------------------
                                   Details of Species
                           -------------------------------

                               Mass of species in AMU
                                    C   12.0107000

                          Electric Quadrupole Moment (Barn)
                                    C    0.0332700 Isotope 11

                          Files used for pseudopotentials:
                                    C 2|1.4|10|12|13|20:21(qc=7)

                           -------------------------------
                              k-Points For BZ Sampling
                           -------------------------------
                       MP grid size for SCF calculation is  1  1500
                            with an offset of   0.000  0.000  0.000
                       Number of kpoints used =           250

                           -------------------------------
                               Symmetry and Constraints
                           -------------------------------

                      Maximum deviation from symmetry =  0.00000         ANG

                      Number of symmetry operations   =           1
                      Number of ionic constraints     =           3
                      Point group of crystal =     1: C1, 1, 1
                      Space group of crystal =     1: P1, P 1

             Set iprint > 1 for details on symmetry rotations/translations

                         Centre of mass is constrained
             Set iprint > 1 for details of linear ionic constraints

                         Number of cell constraints= 5
                         Cell constraints are:  0 0 3 0 0 0

                         External pressure/stress (GPa)
                          0.00000   0.00000   0.00000
                                    0.00000   0.00000
                                              0.00000
  
+---------------- MEMORY AND SCRATCH DISK ESTIMATES PER PROCESS --------------+
|                                                     Memory          Disk    |
| Baseline code, static data and system overhead      597.0 MB         0.0 MB |
| BLAS internal memory storage                          0.0 MB         0.0 MB |
| Model and support data                             1039.9 MB         0.0 MB |
| Electronic energy minimisation requirements         616.8 MB         0.0 MB |
| Force calculation requirements                      150.3 MB         0.0 MB |
|                                               ----------------------------- |
| Approx. total storage required per process         2253.6 MB         0.0 MB |
|                                                                             |
| Requirements will fluctuate during execution and may exceed these estimates |
+-----------------------------------------------------------------------------+
Calculating finite basis set correction with  3 cut-off energies.
Calculating total energy with cut-off of  990.000 eV.
Calculating approximate eigenstates for fixed initial Hamiltonian
Cut-off for approx. calculation is   89.988 eV
Improving approx. states at cut-off of  494.993 eV
Resetting cut-off to  989.987 eV
------------------------------------------------------------------------ <-- SCF
SCF loop      Energy           Fermi           Energy gain       Timer   <-- SCF
                               energy          per atom          (sec)   <-- SCF
------------------------------------------------------------------------ <-- SCF
Initial  -2.85040390E+003  0.00000000E+000                        76.77  <-- SCF
      1  -3.14995270E+003 -5.14079956E+000   1.49774400E+001     130.54  <-- SCF
      2  -3.14995807E+003 -5.14102541E+000   2.68461373E-004     187.10  <-- SCF
      3  -3.14169831E+003 -3.72531402E+000  -4.12987907E-001     247.48  <-- SCF
      4  -3.14123267E+003 -3.26673903E+000  -2.32820239E-002     308.53  <-- SCF
      5  -3.14110729E+003 -2.99371211E+000  -6.26873646E-003     368.79  <-- SCF
      6  -3.14103420E+003 -2.68950455E+000  -3.65450167E-003     428.51  <-- SCF
      7  -3.14102022E+003 -2.57966213E+000  -6.99391548E-004     486.95  <-- SCF
      8  -3.14100902E+003 -2.44513076E+000  -5.59890651E-004     544.71  <-- SCF
      9  -3.14100440E+003 -2.25261162E+000  -2.30891012E-004     603.45  <-- SCF
     10  -3.14101303E+003 -2.14082494E+000   4.31655920E-004     662.99  <-- SCF
     11  -3.14101744E+003 -2.09578511E+000   2.20061246E-004     723.13  <-- SCF
     12  -3.14102093E+003 -2.07171914E+000   1.74591278E-004     781.99  <-- SCF
     13  -3.14102243E+003 -2.05358495E+000   7.52530353E-005     842.31  <-- SCF
     14  -3.14102122E+003 -2.03110642E+000  -6.05136010E-005     903.04  <-- SCF
     15  -3.14102195E+003 -2.00648024E+000   3.62595885E-005     961.10  <-- SCF
     16  -3.14102314E+003 -1.99875586E+000   5.94983649E-005    1020.28  <-- SCF
     17  -3.14102428E+003 -1.99786090E+000   5.70033355E-005    1077.31  <-- SCF
     18  -3.14102506E+003 -1.99620913E+000   3.89536076E-005    1137.74  <-- SCF
     19  -3.14102577E+003 -1.99401226E+000   3.54901557E-005    1194.71  <-- SCF
     20  -3.14102611E+003 -1.99440775E+000   1.70478088E-005    1254.92  <-- SCF
     21  -3.14102618E+003 -1.99477252E+000   3.59505350E-006    1312.79  <-- SCF
     22  -3.14102627E+003 -1.99404284E+000   4.55713262E-006    1370.10  <-- SCF
     23  -3.14102622E+003 -1.99429015E+000  -2.54950713E-006    1426.04  <-- SCF
     24  -3.14102617E+003 -1.99435451E+000  -2.61521071E-006    1483.18  <-- SCF
     25  -3.14102615E+003 -1.99431401E+000  -8.58606476E-007    1538.31  <-- SCF
     26  -3.14102614E+003 -1.99429824E+000  -5.36686864E-007    1596.83  <-- SCF
     27  -3.14102611E+003 -1.99427559E+000  -1.67375627E-006    1654.31  <-- SCF
     28  -3.14102606E+003 -1.99428139E+000  -2.17835039E-006    1710.26  <-- SCF
     29  -3.14102607E+003 -1.99429707E+000   1.96865633E-007    1765.66  <-- SCF
     30  -3.14102608E+003 -1.99431386E+000   7.11639167E-007    1819.33  <-- SCF
     31  -3.14102609E+003 -1.99433537E+000   6.83437545E-007    1871.99  <-- SCF
     32  -3.14102610E+003 -1.99433836E+000   3.65675215E-007    1925.92  <-- SCF
     33  -3.14102610E+003 -1.99433700E+000   5.28038693E-008    1976.96  <-- SCF
     34  -3.14102610E+003 -1.99433667E+000  -2.10152447E-008    2028.04  <-- SCF
     35  -3.14102610E+003 -1.99433633E+000  -2.36493284E-008    2078.60  <-- SCF
     36  -3.14102610E+003 -1.99433643E+000  -1.62476374E-008    2129.14  <-- SCF
     37  -3.14102610E+003 -1.99433662E+000  -2.41619920E-009    2176.00  <-- SCF
     38  -3.14102610E+003 -1.99433663E+000   7.54078589E-010    2223.89  <-- SCF
     39  -3.14102610E+003 -1.99433657E+000   6.88320755E-011    2269.77  <-- SCF
     40  -3.14102610E+003 -1.99433646E+000  -4.13765847E-010    2315.33  <-- SCF
     41  -3.14102610E+003 -1.99433634E+000   5.41839911E-010    2360.87  <-- SCF
     42  -3.14102610E+003 -1.99433630E+000  -6.01391257E-010    2408.10  <-- SCF
     43  -3.14102610E+003 -1.99433629E+000   8.55373882E-011    2453.41  <-- SCF
     44  -3.14102610E+003 -1.99433630E+000   1.07996753E-009    2498.77  <-- SCF
     45  -3.14102610E+003 -1.99433631E+000   5.41839911E-010    2544.06  <-- SCF
     46  -3.14102610E+003 -1.99433631E+000   1.15545080E-010    2591.24  <-- SCF
     47  -3.14102610E+003 -1.99433632E+000   2.32018232E-012    2640.77  <-- SCF
     48  -3.14102610E+003 -1.99433632E+000  -9.28072928E-013    2681.66  <-- SCF
------------------------------------------------------------------------ <-- SCF
 
Final energy, E             =  -3141.025340319     eV
Final free energy (E-TS)    =  -3141.026101217     eV
(energies not corrected for finite basis set)
 
NB est. 0K energy (E-0.5TS)      =  -3141.025720768     eV
 
Calculating total energy with cut-off of  995.000 eV.
------------------------------------------------------------------------ <-- SCF
SCF loop      Energy           Fermi           Energy gain       Timer   <-- SCF
                               energy          per atom          (sec)   <-- SCF
------------------------------------------------------------------------ <-- SCF
Initial  -3.14102534E+003  0.00000000E+000                      2708.60  <-- SCF
      1  -3.14102611E+003 -1.99433633E+000   3.85132300E-005    2749.47  <-- SCF
      2  -3.14102611E+003 -1.99433633E+000   3.71229171E-012    2792.95  <-- SCF
      3  -3.14102611E+003 -1.99433622E+000  -1.57572475E-008    2840.02  <-- SCF
      4  -3.14102611E+003 -1.99433615E+000   1.62487975E-008    2887.09  <-- SCF
      5  -3.14102611E+003 -1.99433618E+000  -4.03479706E-010    2932.79  <-- SCF
      6  -3.14102611E+003 -1.99433619E+000  -6.19875377E-011    2979.50  <-- SCF
      7  -3.14102611E+003 -1.99433620E+000  -5.30741706E-011    3025.99  <-- SCF
      8  -3.14102611E+003 -1.99433620E+000  -7.22350096E-011    3071.54  <-- SCF
      9  -3.14102611E+003 -1.99433621E+000  -7.57926225E-012    3114.73  <-- SCF
     10  -3.14102611E+003 -1.99433621E+000   2.62953996E-012    3154.36  <-- SCF
------------------------------------------------------------------------ <-- SCF
 
Final energy, E             =  -3141.025349683     eV
Final free energy (E-TS)    =  -3141.026110581     eV
(energies not corrected for finite basis set)
 
NB est. 0K energy (E-0.5TS)      =  -3141.025730132     eV
 
Calculating total energy with cut-off of 1000.000 eV.
------------------------------------------------------------------------ <-- SCF
SCF loop      Energy           Fermi           Energy gain       Timer   <-- SCF
                               energy          per atom          (sec)   <-- SCF
------------------------------------------------------------------------ <-- SCF
Initial  -3.14102535E+003  0.00000000E+000                      3181.19  <-- SCF
      1  -3.14102612E+003 -1.99433628E+000   3.85173892E-005    3221.72  <-- SCF
      2  -3.14102612E+003 -1.99433628E+000   7.73394107E-013    3261.42  <-- SCF
      3  -3.14102612E+003 -1.99433616E+000  -1.82797304E-008    3308.61  <-- SCF
      4  -3.14102612E+003 -1.99433610E+000   1.76978094E-008    3355.72  <-- SCF
      5  -3.14102612E+003 -1.99433612E+000  -2.27571216E-010    3400.68  <-- SCF
      6  -3.14102612E+003 -1.99433613E+000  -8.24244769E-011    3448.01  <-- SCF
      7  -3.14102612E+003 -1.99433614E+000  -6.15911732E-010    3492.02  <-- SCF
      8  -3.14102612E+003 -1.99433614E+000   5.35188722E-011    3536.21  <-- SCF
      9  -3.14102612E+003 -1.99433614E+000   9.43540810E-012    3582.43  <-- SCF
     10  -3.14102612E+003 -1.99433614E+000   7.57926225E-012    3622.54  <-- SCF
     11  -3.14102612E+003 -1.99433614E+000  -5.87779521E-012    3662.05  <-- SCF
------------------------------------------------------------------------ <-- SCF
 
Final energy, E             =  -3141.025359104     eV
Final free energy (E-TS)    =  -3141.026120002     eV
(energies not corrected for finite basis set)
 
NB est. 0K energy (E-0.5TS)      =  -3141.025739553     eV
 
 For future reference: finite basis dEtot/dlog(Ecut) =      -0.001850eV
 Total energy corrected for finite basis set =   -3141.026120 eV
 
+---------------- MEMORY AND SCRATCH DISK ESTIMATES PER PROCESS --------------+
|                                                     Memory          Disk    |
| Model and support data                             1025.0 MB         0.0 MB |
| Electronic energy minimisation requirements         616.8 MB         0.0 MB |
| Geometry minimisation requirements                  704.5 MB         0.0 MB |
|                                               ----------------------------- |
| Approx. total storage required per process         2346.2 MB         0.0 MB |
|                                                                             |
| Requirements will fluctuate during execution and may exceed these estimates |
+-----------------------------------------------------------------------------+
 

 ************************************** Forces **************************************
 *                                                                                  *
 *                           Cartesian components (eV/A)                            *
 * -------------------------------------------------------------------------------- *
 *                         x                    y                    z              *
 *                                                                                  *
 * C               1     -0.01434              0.20687              0.00950         *
 * C               2     -0.20520             -0.05003              0.01375         *
 * C               3      0.01954              0.09484             -0.00400         *
 * C               4      0.14468              0.03422              0.01491         *
 * C               5      0.07307              0.03949              0.00502         *
 * C               6      0.01887             -0.20472             -0.01448         *
 * C               7      0.17961              0.04839             -0.02408         *
 * C               8     -0.00407             -0.12055              0.00117         *
 * C               9     -0.14525             -0.02186             -0.00603         *
 * C              10     -0.06714             -0.06344              0.01609         *
 * C              11     -0.06140             -0.05653              0.01373         *
 * C              12     -0.08411              0.06432              0.00356         *
 * C              13     -0.09888              0.08138              0.00778         *
 * C              14      0.13385              0.09675             -0.03336         *
 * C              15      0.05519             -0.01533             -0.02549         *
 * C              16      0.07113              0.09448             -0.00619         *
 * C              17      0.08554             -0.08509              0.00406         *
 * C              18      0.10468             -0.05548             -0.00763         *
 * C              19     -0.15664             -0.09898              0.01926         *
 * C              20     -0.04914              0.01127              0.01243         *
 *                                                                                  *
 ************************************************************************************

 ***************** Stress Tensor *****************
 *                                               *
 *          Cartesian components (GPa)           *
 * --------------------------------------------- *
 *             x             y             z     *
 *                                               *
 *  x      0.672341     -0.052713     -0.084450  *
 *  y     -0.052713      0.419807      0.007426  *
 *  z     -0.084450      0.007426     -1.847875  *
 *                                               *
 *  Pressure:    0.2519                          *
 *                                               *
 *************************************************

 *********** Constrained Stress Tensor ***********
 *                                               *
 *          Cartesian components (GPa)           *
 * --------------------------------------------- *
 *             x             y             z     *
 *                                               *
 *  x      0.000001      0.000000      0.001671  *
 *  y      0.000000     -0.000000     -0.000310  *
 *  z      0.001671     -0.000310     -1.847798  *
 *                                               *
 *  Pressure:    0.6159                          *
 *                                               *
 *************************************************
 LBFGS: finished iteration     0 with enthalpy= -3.14102612E+003 eV
  
 +-----------+-----------------+-----------------+------------+-----+ <-- LBFGS
 | Parameter |      value      |    tolerance    |    units   | OK? | <-- LBFGS
 +-----------+-----------------+-----------------+------------+-----+ <-- LBFGS
 |  dE/ion   |   0.000000E+000 |   2.000000E-005 |         eV | No  | <-- LBFGS
 |  |F|max   |   2.116617E-001 |   5.000000E-002 |       eV/A | No  | <-- LBFGS
 |  |dR|max  |   0.000000E+000 |   1.000000E-003 |          A | No  | <-- LBFGS
 |   Smax    |   1.847798E+000 |   1.000000E-001 |        GPa | No  | <-- LBFGS
 +-----------+-----------------+-----------------+------------+-----+ <-- LBFGS
  

================================================================================
 Starting LBFGS iteration          1 ...
================================================================================
  
 +------------+-------------+-------------+-----------------+ <-- min LBFGS
 |    Step    |   lambda    |   F.delta'  |    enthalpy     | <-- min LBFGS
 +------------+-------------+-------------+-----------------+ <-- min LBFGS
 |  previous  |    0.000000 |    0.446457 |    -3141.026120 | <-- min LBFGS
 +------------+-------------+-------------+-----------------+ <-- min LBFGS
  

--------------------------------------------------------------------------------
 LBFGS: starting iteration         1 with trial guess (lambda=  1.000000)
--------------------------------------------------------------------------------
 
+---------------- MEMORY AND SCRATCH DISK ESTIMATES PER PROCESS --------------+
|                                                     Memory          Disk    |
| Model and support data                             1025.3 MB         0.0 MB |
| Electronic energy minimisation requirements         617.4 MB         0.0 MB |
| Geometry minimisation requirements                  705.2 MB         0.0 MB |
|                                               ----------------------------- |
| Approx. total storage required per process         2348.0 MB         0.0 MB |
|                                                                             |
| Requirements will fluctuate during execution and may exceed these estimates |
+-----------------------------------------------------------------------------+
 

                           -------------------------------
                                      Unit Cell
                           -------------------------------
        Real Lattice(A)              Reciprocal Lattice(1/A)
    19.1230500    -0.7864580    -0.0047643        0.327993638  -0.013922938   0.000679187
     0.7854600    18.5034760    -0.0046147        0.013940790   0.338976058  -0.000004192
    -0.0050627     0.0002385     2.4497871        0.000664137   0.000611461   2.564789619

                       Lattice parameters(A)       Cell Angles
                    a =     19.139216          alpha =   90.013725
                    b =     18.520140          beta  =   90.132799
                    c =      2.449792          gamma =   89.924318

                Current cell volume =           868.352629 A**3
                            density =             0.276632 amu/A**3
                                    =             0.459358 g/cm^3

                           -------------------------------
                                     Cell Contents
                           -------------------------------

            xxxxxxxxxxxxxxxxxxxxxxxxxxxxxxxxxxxxxxxxxxxxxxxxxxxxxxxxxxxxxxxxx
            x  Element         Atom        Fractional coordinates of atoms  x
            x                 Number           u          v          w      x
            x---------------------------------------------------------------x
            x  C                 1         0.637630   0.516942   0.501148   x
            x  C                 2         0.590114   0.412505   0.000870   x
            x  C                 3         0.491432   0.357687   0.500554   x
            x  C                 4         0.379951   0.371699   0.000403   x
            x  C                 5         0.297878   0.450580   0.500356   x
            x  C                 6         0.276817   0.564232   0.000510   x
            x  C                 7         0.324347   0.668681   0.500873   x
            x  C                 8         0.422972   0.723592   0.001176   x
            x  C                 9         0.534469   0.709445   0.501303   x
            x  C                10         0.616579   0.630627   0.001188   x
            x  C                11         0.629052   0.478801   0.001009   x
            x  C                12         0.561097   0.387103   0.500615   x
            x  C                13         0.453456   0.354499   0.000245   x
            x  C                14         0.347145   0.391744   0.500261   x
            x  C                15         0.283189   0.486854   0.000347   x
            x  C                16         0.285428   0.602358   0.500655   x
            x  C                17         0.353302   0.694166   0.001120   x
            x  C                18         0.460963   0.726651   0.501478   x
            x  C                19         0.567313   0.689460   0.001447   x
            x  C                20         0.631242   0.594333   0.501232   x
            xxxxxxxxxxxxxxxxxxxxxxxxxxxxxxxxxxxxxxxxxxxxxxxxxxxxxxxxxxxxxxxxx


------------------------------------------------------------------------ <-- SCF
SCF loop      Energy           Fermi           Energy gain       Timer   <-- SCF
                               energy          per atom          (sec)   <-- SCF
------------------------------------------------------------------------ <-- SCF
Initial  -3.14102682E+003  0.00000000E+000                      4034.17  <-- SCF
      1  -3.14105128E+003 -2.05428493E+000   1.22318510E-003    4080.70  <-- SCF
      2  -3.14105147E+003 -2.05428945E+000   9.18459222E-006    4150.23  <-- SCF
      3  -3.14104192E+003 -2.04406589E+000  -4.77133203E-004    4208.86  <-- SCF
      4  -3.14104127E+003 -2.04123020E+000  -3.24969502E-005    4261.10  <-- SCF
      5  -3.14104119E+003 -2.03823051E+000  -4.09273013E-006    4313.72  <-- SCF
      6  -3.14104119E+003 -2.03391266E+000  -8.32403304E-008    4368.15  <-- SCF
      7  -3.14104128E+003 -2.02916770E+000   4.36104793E-006    4425.44  <-- SCF
      8  -3.14104123E+003 -2.02374560E+000  -2.17678854E-006    4477.01  <-- SCF
      9  -3.14104115E+003 -2.01947818E+000  -4.04643086E-006    4530.39  <-- SCF
     10  -3.14104082E+003 -2.01286762E+000  -1.68421476E-005    4587.22  <-- SCF
     11  -3.14104003E+003 -2.00731431E+000  -3.90901065E-005    4645.86  <-- SCF
     12  -3.14103960E+003 -2.00393498E+000  -2.16371096E-005    4705.18  <-- SCF
     13  -3.14103956E+003 -2.00226178E+000  -2.22227724E-006    4763.92  <-- SCF
     14  -3.14103971E+003 -2.00164045E+000   7.57777847E-006    4821.62  <-- SCF
     15  -3.14103980E+003 -2.00130759E+000   4.63051021E-006    4881.90  <-- SCF
     16  -3.14103983E+003 -2.00080518E+000   1.35406527E-006    4939.98  <-- SCF
     17  -3.14103984E+003 -2.00037652E+000   7.01221375E-007    4997.42  <-- SCF
     18  -3.14103994E+003 -2.00014978E+000   5.03823633E-006    5054.75  <-- SCF
     19  -3.14104010E+003 -2.00002820E+000   7.95523559E-006    5113.37  <-- SCF
     20  -3.14104018E+003 -1.99995484E+000   3.70108428E-006    5169.97  <-- SCF
     21  -3.14104022E+003 -1.99992986E+000   2.10489545E-006    5224.43  <-- SCF
     22  -3.14104024E+003 -1.99994139E+000   1.06587882E-006    5278.24  <-- SCF
     23  -3.14104024E+003 -1.99994698E+000  -1.08322255E-007    5328.80  <-- SCF
     24  -3.14104023E+003 -1.99994552E+000  -2.13264256E-007    5382.20  <-- SCF
     25  -3.14104023E+003 -1.99994605E+000  -3.89169014E-008    5434.43  <-- SCF
     26  -3.14104023E+003 -1.99994640E+000   8.09142123E-008    5487.51  <-- SCF
     27  -3.14104024E+003 -1.99994702E+000   6.17908635E-008    5538.48  <-- SCF
     28  -3.14104024E+003 -1.99994734E+000   3.14503420E-008    5589.22  <-- SCF
     29  -3.14104024E+003 -1.99994770E+000   1.30256389E-008    5637.48  <-- SCF
     30  -3.14104024E+003 -1.99994800E+000  -8.60702567E-009    5684.78  <-- SCF
     31  -3.14104024E+003 -1.99994834E+000  -9.47591462E-009    5732.11  <-- SCF
     32  -3.14104024E+003 -1.99994855E+000   2.68775720E-009    5779.26  <-- SCF
     33  -3.14104024E+003 -1.99994871E+000   1.95347750E-009    5825.68  <-- SCF
     34  -3.14104024E+003 -1.99994880E+000   2.79599371E-009    5871.68  <-- SCF
     35  -3.14104024E+003 -1.99994888E+000  -7.32114196E-010    5917.86  <-- SCF
     36  -3.14104024E+003 -1.99994893E+000  -2.72544083E-010    5963.30  <-- SCF
     37  -3.14104024E+003 -1.99994898E+000   7.92883638E-010    6008.71  <-- SCF
     38  -3.14104024E+003 -1.99994901E+000  -8.69314311E-010    6055.46  <-- SCF
     39  -3.14104024E+003 -1.99994904E+000  -1.86078622E-010    6101.83  <-- SCF
     40  -3.14104024E+003 -1.99994906E+000   1.94566622E-010    6148.71  <-- SCF
     41  -3.14104024E+003 -1.99994907E+000   6.49651050E-011    6197.59  <-- SCF
     42  -3.14104024E+003 -1.99994908E+000   5.97079585E-010    6244.05  <-- SCF
     43  -3.14104024E+003 -1.99994908E+000   1.09338592E-010    6289.37  <-- SCF
     44  -3.14104024E+003 -1.99994908E+000   3.86697053E-012    6336.59  <-- SCF
     45  -3.14104024E+003 -1.99994908E+000  -6.03247403E-012    6381.92  <-- SCF
------------------------------------------------------------------------ <-- SCF
 
Final energy, E             =  -3141.039471221     eV
Final free energy (E-TS)    =  -3141.040236500     eV
(energies not corrected for finite basis set)
 
NB est. 0K energy (E-0.5TS)      =  -3141.039853860     eV
 

 ************************************** Forces **************************************
 *                                                                                  *
 *                           Cartesian components (eV/A)                            *
 * -------------------------------------------------------------------------------- *
 *                         x                    y                    z              *
 *                                                                                  *
 * C               1     -0.03796              0.07614              0.01118         *
 * C               2     -0.15385             -0.00086              0.01055         *
 * C               3     -0.03878              0.08187              0.00018         *
 * C               4      0.08127              0.06580             -0.00183         *
 * C               5      0.08101              0.02631             -0.00800         *
 * C               6      0.04407             -0.06919             -0.01251         *
 * C               7      0.13969              0.00800             -0.01343         *
 * C               8      0.04701             -0.10456             -0.00088         *
 * C               9     -0.08188             -0.05444              0.00268         *
 * C              10     -0.08171             -0.03860              0.01525         *
 * C              11     -0.05452              0.00687              0.01224         *
 * C              12     -0.09500              0.05258              0.00635         *
 * C              13     -0.00951              0.07222              0.00498         *
 * C              14      0.13678              0.08603             -0.01422         *
 * C              15      0.05976             -0.04216             -0.01462         *
 * C              16      0.05470              0.01040             -0.01059         *
 * C              17      0.09804             -0.07004             -0.00563         *
 * C              18      0.01459             -0.05062             -0.00515         *
 * C              19     -0.15049             -0.09375              0.01024         *
 * C              20     -0.05322              0.03798              0.01321         *
 *                                                                                  *
 ************************************************************************************

 ***************** Stress Tensor *****************
 *                                               *
 *          Cartesian components (GPa)           *
 * --------------------------------------------- *
 *             x             y             z     *
 *                                               *
 *  x      0.651986     -0.043795     -0.082036  *
 *  y     -0.043795      0.433835      0.006681  *
 *  z     -0.082036      0.006681     -1.580942  *
 *                                               *
 *  Pressure:    0.1650                          *
 *                                               *
 *************************************************

 *********** Constrained Stress Tensor ***********
 *                                               *
 *          Cartesian components (GPa)           *
 * --------------------------------------------- *
 *             x             y             z     *
 *                                               *
 *  x      0.000001      0.000000      0.001376  *
 *  y      0.000000     -0.000000     -0.000270  *
 *  z      0.001376     -0.000270     -1.580867  *
 *                                               *
 *  Pressure:    0.5270                          *
 *                                               *
 *************************************************
  
 +------------+-------------+-------------+-----------------+ <-- min LBFGS
 |    Step    |   lambda    |   F.delta'  |    enthalpy     | <-- min LBFGS
 +------------+-------------+-------------+-----------------+ <-- min LBFGS
 |  previous  |    0.000000 |    0.446457 |    -3141.026120 | <-- min LBFGS
 | trial step |    1.000000 |    0.364263 |    -3141.040236 | <-- min LBFGS
 +------------+-------------+-------------+-----------------+ <-- min LBFGS
  
 LBFGS: finished iteration     1 with enthalpy= -3.14104024E+003 eV
  
 +-----------+-----------------+-----------------+------------+-----+ <-- LBFGS
 | Parameter |      value      |    tolerance    |    units   | OK? | <-- LBFGS
 +-----------+-----------------+-----------------+------------+-----+ <-- LBFGS
 |  dE/ion   |   7.058250E-004 |   2.000000E-005 |         eV | No  | <-- LBFGS
 |  |F|max   |   1.775999E-001 |   5.000000E-002 |       eV/A | No  | <-- LBFGS
 |  |dR|max  |   1.722812E-003 |   1.000000E-003 |          A | No  | <-- LBFGS
 |   Smax    |   1.580867E+000 |   1.000000E-001 |        GPa | No  | <-- LBFGS
 +-----------+-----------------+-----------------+------------+-----+ <-- LBFGS
  

================================================================================
 Starting LBFGS iteration          2 ...
================================================================================
  
 +------------+-------------+-------------+-----------------+ <-- min LBFGS
 |    Step    |   lambda    |   F.delta'  |    enthalpy     | <-- min LBFGS
 +------------+-------------+-------------+-----------------+ <-- min LBFGS
 |  previous  |    0.000000 |    0.367872 |    -3141.040236 | <-- min LBFGS
 +------------+-------------+-------------+-----------------+ <-- min LBFGS
  

--------------------------------------------------------------------------------
 LBFGS: starting iteration         2 with trial guess (lambda=  1.000000)
--------------------------------------------------------------------------------
 
+---------------- MEMORY AND SCRATCH DISK ESTIMATES PER PROCESS --------------+
|                                                     Memory          Disk    |
| Model and support data                             1025.6 MB         0.0 MB |
| Electronic energy minimisation requirements         618.0 MB         0.0 MB |
| Geometry minimisation requirements                  705.9 MB         0.0 MB |
|                                               ----------------------------- |
| Approx. total storage required per process         2349.6 MB         0.0 MB |
|                                                                             |
| Requirements will fluctuate during execution and may exceed these estimates |
+-----------------------------------------------------------------------------+
 

                           -------------------------------
                                      Unit Cell
                           -------------------------------
        Real Lattice(A)              Reciprocal Lattice(1/A)
    19.1230500    -0.7864580    -0.0047870        0.327993639  -0.013922938   0.000678798
     0.7854600    18.5034760    -0.0046171        0.013940790   0.338976058  -0.000004235
    -0.0050651     0.0002389     2.4523658        0.000666485   0.000611016   2.562092723

                       Lattice parameters(A)       Cell Angles
                    a =     19.139216          alpha =   90.013725
                    b =     18.520140          beta  =   90.132799
                    c =      2.452371          gamma =   89.924318

                Current cell volume =           869.266670 A**3
                            density =             0.276341 amu/A**3
                                    =             0.458875 g/cm^3

                           -------------------------------
                                     Cell Contents
                           -------------------------------

            xxxxxxxxxxxxxxxxxxxxxxxxxxxxxxxxxxxxxxxxxxxxxxxxxxxxxxxxxxxxxxxxx
            x  Element         Atom        Fractional coordinates of atoms  x
            x                 Number           u          v          w      x
            x---------------------------------------------------------------x
            x  C                 1         0.637612   0.516975   0.501186   x
            x  C                 2         0.590049   0.412502   0.000905   x
            x  C                 3         0.491414   0.357722   0.500555   x
            x  C                 4         0.379984   0.371729   0.000397   x
            x  C                 5         0.297912   0.450593   0.500330   x
            x  C                 6         0.276837   0.564202   0.000468   x
            x  C                 7         0.324407   0.668687   0.500828   x
            x  C                 8         0.422994   0.723547   0.001173   x
            x  C                 9         0.534436   0.709419   0.501312   x
            x  C                10         0.616545   0.630608   0.001239   x
            x  C                11         0.629029   0.478803   0.001050   x
            x  C                12         0.561056   0.387125   0.500636   x
            x  C                13         0.453450   0.354531   0.000262   x
            x  C                14         0.347202   0.391784   0.500214   x
            x  C                15         0.283215   0.486837   0.000298   x
            x  C                16         0.285452   0.602364   0.500620   x
            x  C                17         0.353345   0.694137   0.001101   x
            x  C                18         0.460970   0.726629   0.501461   x
            x  C                19         0.567251   0.689416   0.001481   x
            x  C                20         0.631218   0.594349   0.501276   x
            xxxxxxxxxxxxxxxxxxxxxxxxxxxxxxxxxxxxxxxxxxxxxxxxxxxxxxxxxxxxxxxxx


------------------------------------------------------------------------ <-- SCF
SCF loop      Energy           Fermi           Energy gain       Timer   <-- SCF
                               energy          per atom          (sec)   <-- SCF
------------------------------------------------------------------------ <-- SCF
Initial  -3.14104185E+003  0.00000000E+000                      6755.02  <-- SCF
      1  -3.14105884E+003 -2.05942680E+000   8.49461242E-004    6801.09  <-- SCF
      2  -3.14105895E+003 -2.05943106E+000   5.55295828E-006    6869.06  <-- SCF
      3  -3.14105177E+003 -2.04914042E+000  -3.58983005E-004    6927.70  <-- SCF
      4  -3.14105144E+003 -2.04584079E+000  -1.65527733E-005    6981.27  <-- SCF
      5  -3.14105135E+003 -2.04247431E+000  -4.47562410E-006    7034.38  <-- SCF
      6  -3.14105140E+003 -2.03789990E+000   2.71342917E-006    7090.95  <-- SCF
      7  -3.14105140E+003 -2.03256138E+000  -1.08548222E-007    7144.89  <-- SCF
      8  -3.14105138E+003 -2.02770153E+000  -7.86564660E-007    7201.11  <-- SCF
      9  -3.14105129E+003 -2.02394187E+000  -4.69907811E-006    7256.88  <-- SCF
     10  -3.14105102E+003 -2.01868753E+000  -1.32115418E-005    7316.35  <-- SCF
     11  -3.14105052E+003 -2.01402969E+000  -2.53924953E-005    7375.53  <-- SCF
     12  -3.14104978E+003 -2.00933122E+000  -3.69057327E-005    7436.27  <-- SCF
     13  -3.14104970E+003 -2.00752998E+000  -3.92714338E-006    7494.69  <-- SCF
     14  -3.14104982E+003 -2.00662162E+000   6.10196307E-006    7552.03  <-- SCF
     15  -3.14104995E+003 -2.00631731E+000   6.24120790E-006    7612.13  <-- SCF
     16  -3.14104998E+003 -2.00579381E+000   1.65617677E-006    7667.92  <-- SCF
     17  -3.14104999E+003 -2.00528904E+000   4.42007783E-007    7726.98  <-- SCF
     18  -3.14105009E+003 -2.00503783E+000   5.25363718E-006    7783.78  <-- SCF
     19  -3.14105024E+003 -2.00491197E+000   7.36670940E-006    7842.98  <-- SCF
     20  -3.14105033E+003 -2.00483946E+000   4.33300288E-006    7899.46  <-- SCF
     21  -3.14105036E+003 -2.00482754E+000   1.72884379E-006    7954.31  <-- SCF
     22  -3.14105038E+003 -2.00483531E+000   1.09352900E-006    8007.86  <-- SCF
     23  -3.14105038E+003 -2.00483811E+000  -1.51939923E-007    8058.75  <-- SCF
     24  -3.14105038E+003 -2.00483724E+000  -2.45710711E-007    8112.06  <-- SCF
     25  -3.14105038E+003 -2.00483769E+000  -2.28276745E-008    8165.09  <-- SCF
     26  -3.14105038E+003 -2.00483860E+000   9.35964835E-008    8217.79  <-- SCF
     27  -3.14105038E+003 -2.00483901E+000   7.25094678E-008    8269.36  <-- SCF
     28  -3.14105038E+003 -2.00483954E+000   3.61503354E-008    8319.05  <-- SCF
     29  -3.14105038E+003 -2.00484011E+000   9.34045464E-009    8367.50  <-- SCF
     30  -3.14105038E+003 -2.00484074E+000  -9.96651717E-009    8416.39  <-- SCF
     31  -3.14105038E+003 -2.00484126E+000  -2.94112305E-008    8464.67  <-- SCF
     32  -3.14105038E+003 -2.00484140E+000  -6.48757780E-009    8513.10  <-- SCF
     33  -3.14105038E+003 -2.00484152E+000   7.23761540E-010    8559.81  <-- SCF
     34  -3.14105038E+003 -2.00484162E+000   4.24152530E-009    8607.01  <-- SCF
     35  -3.14105038E+003 -2.00484169E+000   5.42651975E-010    8653.28  <-- SCF
     36  -3.14105038E+003 -2.00484167E+000   2.92250165E-009    8699.61  <-- SCF
     37  -3.14105038E+003 -2.00484170E+000  -1.42215575E-009    8745.49  <-- SCF
     38  -3.14105038E+003 -2.00484172E+000   1.40139012E-010    8791.97  <-- SCF
     39  -3.14105038E+003 -2.00484173E+000  -1.05046255E-010    8841.45  <-- SCF
     40  -3.14105038E+003 -2.00484175E+000  -2.12528701E-010    8886.68  <-- SCF
     41  -3.14105038E+003 -2.00484176E+000  -8.44701043E-010    8931.74  <-- SCF
     42  -3.14105038E+003 -2.00484177E+000  -2.85537104E-010    8977.22  <-- SCF
     43  -3.14105038E+003 -2.00484177E+000  -3.09357643E-013    9027.38  <-- SCF
     44  -3.14105038E+003 -2.00484177E+000  -3.54214501E-011    9072.85  <-- SCF
     45  -3.14105038E+003 -2.00484177E+000   2.62953996E-012    9115.72  <-- SCF
     46  -3.14105038E+003 -2.00484177E+000  -8.04329871E-012    9156.13  <-- SCF
     47  -3.14105038E+003 -2.00484177E+000   2.32018232E-012    9196.50  <-- SCF
     48  -3.14105038E+003 -2.00484177E+000   9.28072928E-013    9236.55  <-- SCF
------------------------------------------------------------------------ <-- SCF
 
Final energy, E             =  -3141.049610916     eV
Final free energy (E-TS)    =  -3141.050378883     eV
(energies not corrected for finite basis set)
 
NB est. 0K energy (E-0.5TS)      =  -3141.049994900     eV
 

 ************************************** Forces **************************************
 *                                                                                  *
 *                           Cartesian components (eV/A)                            *
 * -------------------------------------------------------------------------------- *
 *                         x                    y                    z              *
 *                                                                                  *
 * C               1     -0.04686              0.03520              0.01163         *
 * C               2     -0.12928              0.02293              0.00928         *
 * C               3     -0.05045              0.07451              0.00210         *
 * C               4      0.06462              0.07495             -0.00548         *
 * C               5      0.08373              0.02049             -0.01061         *
 * C               6      0.05273             -0.02974             -0.01196         *
 * C               7      0.11918             -0.01477             -0.01057         *
 * C               8      0.05599             -0.09381             -0.00243         *
 * C               9     -0.06408             -0.06540              0.00473         *
 * C              10     -0.08662             -0.02828              0.01418         *
 * C              11     -0.05776              0.02333              0.01172         *
 * C              12     -0.09077              0.05333              0.00729         *
 * C              13      0.00890              0.06829              0.00306         *
 * C              14      0.12938              0.08152             -0.00954         *
 * C              15      0.06065             -0.03671             -0.01227         *
 * C              16      0.05506             -0.01268             -0.01149         *
 * C              17      0.09510             -0.06759             -0.00791         *
 * C              18     -0.00524             -0.05051             -0.00332         *
 * C              19     -0.13958             -0.08984              0.00794         *
 * C              20     -0.05471              0.03478              0.01365         *
 *                                                                                  *
 ************************************************************************************

 ***************** Stress Tensor *****************
 *                                               *
 *          Cartesian components (GPa)           *
 * --------------------------------------------- *
 *             x             y             z     *
 *                                               *
 *  x      0.633230     -0.036689     -0.080795  *
 *  y     -0.036689      0.444393      0.006504  *
 *  z     -0.080795      0.006504     -1.363228  *
 *                                               *
 *  Pressure:    0.0952                          *
 *                                               *
 *************************************************

 *********** Constrained Stress Tensor ***********
 *                                               *
 *          Cartesian components (GPa)           *
 * --------------------------------------------- *
 *             x             y             z     *
 *                                               *
 *  x      0.000001      0.000000      0.001136  *
 *  y      0.000000     -0.000000     -0.000237  *
 *  z      0.001136     -0.000237     -1.363155  *
 *                                               *
 *  Pressure:    0.4544                          *
 *                                               *
 *************************************************
  
 +------------+-------------+-------------+-----------------+ <-- min LBFGS
 |    Step    |   lambda    |   F.delta'  |    enthalpy     | <-- min LBFGS
 +------------+-------------+-------------+-----------------+ <-- min LBFGS
 |  previous  |    0.000000 |    0.367872 |    -3141.040236 | <-- min LBFGS
 | trial step |    1.000000 |    0.320309 |    -3141.050379 | <-- min LBFGS
 +------------+-------------+-------------+-----------------+ <-- min LBFGS
  
 LBFGS: finished iteration     2 with enthalpy= -3.14105038E+003 eV
  
 +-----------+-----------------+-----------------+------------+-----+ <-- LBFGS
 | Parameter |      value      |    tolerance    |    units   | OK? | <-- LBFGS
 +-----------+-----------------+-----------------+------------+-----+ <-- LBFGS
 |  dE/ion   |   5.071193E-004 |   2.000000E-005 |         eV | No  | <-- LBFGS
 |  |F|max   |   1.661808E-001 |   5.000000E-002 |       eV/A | No  | <-- LBFGS
 |  |dR|max  |   1.445577E-003 |   1.000000E-003 |          A | No  | <-- LBFGS
 |   Smax    |   1.363155E+000 |   1.000000E-001 |        GPa | No  | <-- LBFGS
 +-----------+-----------------+-----------------+------------+-----+ <-- LBFGS
  

================================================================================
 Starting LBFGS iteration          3 ...
================================================================================
  
 +------------+-------------+-------------+-----------------+ <-- min LBFGS
 |    Step    |   lambda    |   F.delta'  |    enthalpy     | <-- min LBFGS
 +------------+-------------+-------------+-----------------+ <-- min LBFGS
 |  previous  |    0.000000 |    0.324339 |    -3141.050379 | <-- min LBFGS
 +------------+-------------+-------------+-----------------+ <-- min LBFGS
  

--------------------------------------------------------------------------------
 LBFGS: starting iteration         3 with trial guess (lambda=  1.000000)
--------------------------------------------------------------------------------
 
+---------------- MEMORY AND SCRATCH DISK ESTIMATES PER PROCESS --------------+
|                                                     Memory          Disk    |
| Model and support data                             1025.9 MB         0.0 MB |
| Electronic energy minimisation requirements         618.6 MB         0.0 MB |
| Geometry minimisation requirements                  706.6 MB         0.0 MB |
|                                               ----------------------------- |
| Approx. total storage required per process         2351.1 MB         0.0 MB |
|                                                                             |
| Requirements will fluctuate during execution and may exceed these estimates |
+-----------------------------------------------------------------------------+
 

                           -------------------------------
                                      Unit Cell
                           -------------------------------
        Real Lattice(A)              Reciprocal Lattice(1/A)
    19.1230500    -0.7864580    -0.0048059        0.327993639  -0.013922938   0.000678474
     0.7854600    18.5034760    -0.0046191        0.013940790   0.338976058  -0.000004272
    -0.0050673     0.0002393     2.4545893        0.000668418   0.000610639   2.559771785

                       Lattice parameters(A)       Cell Angles
                    a =     19.139216          alpha =   90.013725
                    b =     18.520140          beta  =   90.132799
                    c =      2.454595          gamma =   89.924318

                Current cell volume =           870.054831 A**3
                            density =             0.276091 amu/A**3
                                    =             0.458459 g/cm^3

                           -------------------------------
                                     Cell Contents
                           -------------------------------

            xxxxxxxxxxxxxxxxxxxxxxxxxxxxxxxxxxxxxxxxxxxxxxxxxxxxxxxxxxxxxxxxx
            x  Element         Atom        Fractional coordinates of atoms  x
            x                 Number           u          v          w      x
            x---------------------------------------------------------------x
            x  C                 1         0.637592   0.516990   0.501224   x
            x  C                 2         0.589993   0.412509   0.000935   x
            x  C                 3         0.491391   0.357754   0.500562   x
            x  C                 4         0.380011   0.371764   0.000379   x
            x  C                 5         0.297947   0.450604   0.500294   x
            x  C                 6         0.276860   0.564190   0.000428   x
            x  C                 7         0.324458   0.668683   0.500793   x
            x  C                 8         0.423020   0.723506   0.001165   x
            x  C                 9         0.534410   0.709389   0.501327   x
            x  C                10         0.616509   0.630594   0.001286   x
            x  C                11         0.629004   0.478812   0.001089   x
            x  C                12         0.561017   0.387147   0.500660   x
            x  C                13         0.453453   0.354561   0.000272   x
            x  C                14         0.347255   0.391823   0.500182   x
            x  C                15         0.283242   0.486822   0.000257   x
            x  C                16         0.285475   0.602359   0.500581   x
            x  C                17         0.353387   0.694109   0.001075   x
            x  C                18         0.460968   0.726607   0.501450   x
            x  C                19         0.567193   0.689374   0.001507   x
            x  C                20         0.631194   0.594363   0.501321   x
            xxxxxxxxxxxxxxxxxxxxxxxxxxxxxxxxxxxxxxxxxxxxxxxxxxxxxxxxxxxxxxxxx


------------------------------------------------------------------------ <-- SCF
SCF loop      Energy           Fermi           Energy gain       Timer   <-- SCF
                               energy          per atom          (sec)   <-- SCF
------------------------------------------------------------------------ <-- SCF
Initial  -3.14105076E+003  0.00000000E+000                      9609.18  <-- SCF
      1  -3.14106591E+003 -2.06354796E+000   7.57975755E-004    9655.64  <-- SCF
      2  -3.14106601E+003 -2.06355208E+000   4.64410083E-006    9723.45  <-- SCF
      3  -3.14105951E+003 -2.05333778E+000  -3.25031185E-004    9782.45  <-- SCF
      4  -3.14105924E+003 -2.04987483E+000  -1.35647029E-005    9838.21  <-- SCF
      5  -3.14105913E+003 -2.04600712E+000  -5.19185502E-006    9892.45  <-- SCF
      6  -3.14105916E+003 -2.04156322E+000   1.15004995E-006    9951.58  <-- SCF
      7  -3.14105919E+003 -2.03596031E+000   1.75981249E-006   10004.09  <-- SCF
      8  -3.14105918E+003 -2.03132575E+000  -7.22419972E-007   10058.78  <-- SCF
      9  -3.14105903E+003 -2.02711990E+000  -7.51604766E-006   10115.90  <-- SCF
     10  -3.14105877E+003 -2.02196990E+000  -1.25863485E-005   10174.79  <-- SCF
     11  -3.14105815E+003 -2.01719448E+000  -3.11809048E-005   10233.73  <-- SCF
     12  -3.14105755E+003 -2.01325714E+000  -2.99858252E-005   10294.69  <-- SCF
     13  -3.14105748E+003 -2.01155827E+000  -3.53263630E-006   10353.63  <-- SCF
     14  -3.14105767E+003 -2.01070206E+000   9.31837789E-006   10411.18  <-- SCF
     15  -3.14105777E+003 -2.01036318E+000   5.07391199E-006   10471.04  <-- SCF
     16  -3.14105778E+003 -2.00991181E+000   5.32936540E-007   10526.83  <-- SCF
     17  -3.14105779E+003 -2.00936859E+000   4.97111842E-007   10585.05  <-- SCF
     18  -3.14105794E+003 -2.00914237E+000   7.66420049E-006   10641.47  <-- SCF
     19  -3.14105807E+003 -2.00904405E+000   6.21872402E-006   10700.01  <-- SCF
     20  -3.14105813E+003 -2.00899820E+000   3.18620072E-006   10757.46  <-- SCF
     21  -3.14105817E+003 -2.00898402E+000   1.87301004E-006   10811.82  <-- SCF
     22  -3.14105818E+003 -2.00899165E+000   4.58875044E-007   10865.11  <-- SCF
     23  -3.14105817E+003 -2.00899457E+000  -2.44650349E-007   10916.16  <-- SCF
     24  -3.14105817E+003 -2.00899361E+000  -1.72079899E-007   10970.33  <-- SCF
     25  -3.14105817E+003 -2.00899444E+000   3.36363985E-008   11022.69  <-- SCF
     26  -3.14105817E+003 -2.00899531E+000   7.65797443E-008   11075.08  <-- SCF
     27  -3.14105817E+003 -2.00899580E+000   8.79733090E-008   11124.84  <-- SCF
     28  -3.14105817E+003 -2.00899633E+000   2.83341632E-008   11175.20  <-- SCF
     29  -3.14105817E+003 -2.00899745E+000  -1.23549709E-010   11223.31  <-- SCF
     30  -3.14105817E+003 -2.00899812E+000  -3.95900830E-008   11272.48  <-- SCF
     31  -3.14105817E+003 -2.00899811E+000  -1.31273789E-008   11321.37  <-- SCF
     32  -3.14105817E+003 -2.00899831E+000  -4.95422730E-009   11370.07  <-- SCF
     33  -3.14105817E+003 -2.00899849E+000   2.13988482E-009   11416.23  <-- SCF
     34  -3.14105817E+003 -2.00899864E+000   4.59589448E-011   11462.66  <-- SCF
     35  -3.14105817E+003 -2.00899870E+000   4.38930158E-009   11508.44  <-- SCF
     36  -3.14105817E+003 -2.00899873E+000  -1.06884999E-009   11553.97  <-- SCF
     37  -3.14105817E+003 -2.00899870E+000   1.04313464E-009   11600.75  <-- SCF
     38  -3.14105817E+003 -2.00899867E+000  -9.82829231E-010   11646.52  <-- SCF
     39  -3.14105817E+003 -2.00899863E+000  -8.08506199E-010   11692.82  <-- SCF
     40  -3.14105817E+003 -2.00899858E+000  -5.31012394E-010   11738.00  <-- SCF
     41  -3.14105817E+003 -2.00899856E+000  -4.59396099E-011   11789.62  <-- SCF
     42  -3.14105817E+003 -2.00899855E+000  -3.43386983E-011   11836.17  <-- SCF
     43  -3.14105817E+003 -2.00899854E+000   1.39210939E-012   11883.43  <-- SCF
     44  -3.14105817E+003 -2.00899854E+000  -4.02164936E-012   11925.94  <-- SCF
------------------------------------------------------------------------ <-- SCF
 
Final energy, E             =  -3141.057401234     eV
Final free energy (E-TS)    =  -3141.058171304     eV
(energies not corrected for finite basis set)
 
NB est. 0K energy (E-0.5TS)      =  -3141.057786269     eV
 

 ************************************** Forces **************************************
 *                                                                                  *
 *                           Cartesian components (eV/A)                            *
 * -------------------------------------------------------------------------------- *
 *                         x                    y                    z              *
 *                                                                                  *
 * C               1     -0.05112              0.02085              0.01174         *
 * C               2     -0.11534              0.03565              0.00876         *
 * C               3     -0.04957              0.06951              0.00276         *
 * C               4      0.05910              0.07775             -0.00621         *
 * C               5      0.08333              0.01993             -0.01102         *
 * C               6      0.05639             -0.01689             -0.01176         *
 * C               7      0.10739             -0.02821             -0.00970         *
 * C               8      0.05394             -0.08572             -0.00305         *
 * C               9     -0.05795             -0.06976              0.00523         *
 * C              10     -0.08698             -0.02544              0.01349         *
 * C              11     -0.06157              0.02801              0.01147         *
 * C              12     -0.08387              0.05657              0.00757         *
 * C              13      0.01093              0.06562              0.00216         *
 * C              14      0.12072              0.07832             -0.00820         *
 * C              15      0.06125             -0.02745             -0.01166         *
 * C              16      0.05792             -0.02026             -0.01157         *
 * C              17      0.08855             -0.06840             -0.00840         *
 * C              18     -0.00811             -0.05108             -0.00246         *
 * C              19     -0.12902             -0.08595              0.00725         *
 * C              20     -0.05600              0.02696              0.01362         *
 *                                                                                  *
 ************************************************************************************

 ***************** Stress Tensor *****************
 *                                               *
 *          Cartesian components (GPa)           *
 * --------------------------------------------- *
 *             x             y             z     *
 *                                               *
 *  x      0.615044     -0.030880     -0.079744  *
 *  y     -0.030880      0.450732      0.006420  *
 *  z     -0.079744      0.006420     -1.179133  *
 *                                               *
 *  Pressure:    0.0378                          *
 *                                               *
 *************************************************

 *********** Constrained Stress Tensor ***********
 *                                               *
 *          Cartesian components (GPa)           *
 * --------------------------------------------- *
 *             x             y             z     *
 *                                               *
 *  x      0.000001      0.000000      0.000933  *
 *  y      0.000000     -0.000000     -0.000209  *
 *  z      0.000933     -0.000209     -1.179061  *
 *                                               *
 *  Pressure:    0.3930                          *
 *                                               *
 *************************************************
  
 +------------+-------------+-------------+-----------------+ <-- min LBFGS
 |    Step    |   lambda    |   F.delta'  |    enthalpy     | <-- min LBFGS
 +------------+-------------+-------------+-----------------+ <-- min LBFGS
 |  previous  |    0.000000 |    0.324339 |    -3141.050379 | <-- min LBFGS
 | trial step |    1.000000 |    0.285957 |    -3141.058171 | <-- min LBFGS
 +------------+-------------+-------------+-----------------+ <-- min LBFGS
  
 LBFGS: finished iteration     3 with enthalpy= -3.14105817E+003 eV
  
 +-----------+-----------------+-----------------+------------+-----+ <-- LBFGS
 | Parameter |      value      |    tolerance    |    units   | OK? | <-- LBFGS
 +-----------+-----------------+-----------------+------------+-----+ <-- LBFGS
 |  dE/ion   |   3.896209E-004 |   2.000000E-005 |         eV | No  | <-- LBFGS
 |  |F|max   |   1.551962E-001 |   5.000000E-002 |       eV/A | No  | <-- LBFGS
 |  |dR|max  |   1.352632E-003 |   1.000000E-003 |          A | No  | <-- LBFGS
 |   Smax    |   1.179061E+000 |   1.000000E-001 |        GPa | No  | <-- LBFGS
 +-----------+-----------------+-----------------+------------+-----+ <-- LBFGS
  

================================================================================
 Starting LBFGS iteration          4 ...
================================================================================
  
 +------------+-------------+-------------+-----------------+ <-- min LBFGS
 |    Step    |   lambda    |   F.delta'  |    enthalpy     | <-- min LBFGS
 +------------+-------------+-------------+-----------------+ <-- min LBFGS
 |  previous  |    0.000000 |    0.290247 |    -3141.058171 | <-- min LBFGS
 +------------+-------------+-------------+-----------------+ <-- min LBFGS
  

--------------------------------------------------------------------------------
 LBFGS: starting iteration         4 with trial guess (lambda=  1.000000)
--------------------------------------------------------------------------------
 
+---------------- MEMORY AND SCRATCH DISK ESTIMATES PER PROCESS --------------+
|                                                     Memory          Disk    |
| Model and support data                             1026.1 MB         0.0 MB |
| Electronic energy minimisation requirements         619.1 MB         0.0 MB |
| Geometry minimisation requirements                  707.1 MB         0.0 MB |
|                                               ----------------------------- |
| Approx. total storage required per process         2352.3 MB         0.0 MB |
|                                                                             |
| Requirements will fluctuate during execution and may exceed these estimates |
+-----------------------------------------------------------------------------+
 

                           -------------------------------
                                      Unit Cell
                           -------------------------------
        Real Lattice(A)              Reciprocal Lattice(1/A)
    19.1230500    -0.7864580    -0.0048216        0.327993640  -0.013922938   0.000678204
     0.7854600    18.5034760    -0.0046210        0.013940790   0.338976058  -0.000004305
    -0.0050692     0.0002397     2.4565126        0.000670003   0.000610321   2.557767678

                       Lattice parameters(A)       Cell Angles
                    a =     19.139216          alpha =   90.013725
                    b =     18.520140          beta  =   90.132799
                    c =      2.456518          gamma =   89.924318

                Current cell volume =           870.736551 A**3
                            density =             0.275874 amu/A**3
                                    =             0.458100 g/cm^3

                           -------------------------------
                                     Cell Contents
                           -------------------------------

            xxxxxxxxxxxxxxxxxxxxxxxxxxxxxxxxxxxxxxxxxxxxxxxxxxxxxxxxxxxxxxxxx
            x  Element         Atom        Fractional coordinates of atoms  x
            x                 Number           u          v          w      x
            x---------------------------------------------------------------x
            x  C                 1         0.637570   0.516998   0.501263   x
            x  C                 2         0.589944   0.412523   0.000965   x
            x  C                 3         0.491369   0.357784   0.500571   x
            x  C                 4         0.380034   0.371799   0.000358   x
            x  C                 5         0.297982   0.450614   0.500258   x
            x  C                 6         0.276884   0.564184   0.000389   x
            x  C                 7         0.324504   0.668672   0.500760   x
            x  C                 8         0.423044   0.723470   0.001155   x
            x  C                 9         0.534386   0.709358   0.501345   x
            x  C                10         0.616473   0.630582   0.001331   x
            x  C                11         0.628978   0.478823   0.001127   x
            x  C                12         0.560980   0.387170   0.500685   x
            x  C                13         0.453456   0.354590   0.000280   x
            x  C                14         0.347305   0.391859   0.500155   x
            x  C                15         0.283268   0.486811   0.000218   x
            x  C                16         0.285500   0.602351   0.500543   x
            x  C                17         0.353426   0.694080   0.001047   x
            x  C                18         0.460966   0.726584   0.501442   x
            x  C                19         0.567140   0.689334   0.001531   x
            x  C                20         0.631170   0.594374   0.501367   x
            xxxxxxxxxxxxxxxxxxxxxxxxxxxxxxxxxxxxxxxxxxxxxxxxxxxxxxxxxxxxxxxxx


------------------------------------------------------------------------ <-- SCF
SCF loop      Energy           Fermi           Energy gain       Timer   <-- SCF
                               energy          per atom          (sec)   <-- SCF
------------------------------------------------------------------------ <-- SCF
Initial  -3.14105747E+003  0.00000000E+000                     12299.00  <-- SCF
      1  -3.14107159E+003 -2.06675413E+000   7.05945192E-004   12345.52  <-- SCF
      2  -3.14107167E+003 -2.06675810E+000   4.16318067E-006   12413.19  <-- SCF
      3  -3.14106557E+003 -2.05667534E+000  -3.04911214E-004   12472.29  <-- SCF
      4  -3.14106535E+003 -2.05315219E+000  -1.10191993E-005   12528.71  <-- SCF
      5  -3.14106518E+003 -2.04898908E+000  -8.51743711E-006   12582.88  <-- SCF
      6  -3.14106525E+003 -2.04465426E+000   3.17088583E-006   12642.65  <-- SCF
      7  -3.14106529E+003 -2.03891189E+000   2.11166108E-006   12693.88  <-- SCF
      8  -3.14106527E+003 -2.03443944E+000  -7.08189192E-007   12748.17  <-- SCF
      9  -3.14106504E+003 -2.02929376E+000  -1.16361313E-005   12804.74  <-- SCF
     10  -3.14106477E+003 -2.02420392E+000  -1.34910436E-005   12863.72  <-- SCF
[...]
 *                                                                                  *
 *                           Cartesian components (eV/A)                            *
 * -------------------------------------------------------------------------------- *
 *                         x                    y                    z              *
 *                                                                                  *
 * C               1     -0.03517              0.00581              0.00862         *
 * C               2     -0.03562              0.03203              0.00624         *
 * C               3     -0.00676              0.02528              0.00165         *
 * C               4      0.02106              0.03553             -0.00367         *
 * C               5      0.03612              0.01898             -0.00749         *
 * C               6      0.03453             -0.00548             -0.00848         *
 * C               7      0.03585             -0.03231             -0.00641         *
 * C               8      0.00718             -0.02598             -0.00189         *
 * C               9     -0.02076             -0.03508              0.00365         *
 * C              10     -0.03640             -0.01878              0.00778         *
 * C              11     -0.03719              0.01649              0.00834         *
 * C              12     -0.02523              0.03492              0.00533         *
 * C              13      0.00349              0.02521              0.00042         *
 * C              14      0.03207              0.03376             -0.00474         *
 * C              15      0.03493              0.00803             -0.00800         *
 * C              16      0.03652             -0.01614             -0.00826         *
 * C              17      0.02582             -0.03575             -0.00555         *
 * C              18     -0.00319             -0.02530             -0.00063         *
 * C              19     -0.03201             -0.03348              0.00478         *
 * C              20     -0.03524             -0.00775              0.00831         *
 *                                                                                  *
 ************************************************************************************

 ***************** Stress Tensor *****************
 *                                               *
 *          Cartesian components (GPa)           *
 * --------------------------------------------- *
 *             x             y             z     *
 *                                               *
 *  x      0.259572     -0.002217     -0.054695  *
 *  y     -0.002217      0.223587      0.004458  *
 *  z     -0.054695      0.004458     -0.054265  *
 *                                               *
 *  Pressure:   -0.1430                          *
 *                                               *
 *************************************************

 *********** Constrained Stress Tensor ***********
 *                                               *
 *          Cartesian components (GPa)           *
 * --------------------------------------------- *
 *             x             y             z     *
 *                                               *
 *  x      0.000000      0.000000     -0.000202  *
 *  y      0.000000     -0.000000     -0.000030  *
 *  z     -0.000202     -0.000030     -0.054216  *
 *                                               *
 *  Pressure:    0.0181                          *
 *                                               *
 *************************************************
  
 +------------+-------------+-------------+-----------------+ <-- min LBFGS
 |    Step    |   lambda    |   F.delta'  |    enthalpy     | <-- min LBFGS
 +------------+-------------+-------------+-----------------+ <-- min LBFGS
 |  previous  |    0.000000 |    0.082119 |    -3141.095740 | <-- min LBFGS
 | trial step |    1.000000 |    0.079043 |    -3141.096020 | <-- min LBFGS
 +------------+-------------+-------------+-----------------+ <-- min LBFGS
  
 LBFGS: finished iteration    29 with enthalpy= -3.14109602E+003 eV
  
 +-----------+-----------------+-----------------+------------+-----+ <-- LBFGS
 | Parameter |      value      |    tolerance    |    units   | OK? | <-- LBFGS
 +-----------+-----------------+-----------------+------------+-----+ <-- LBFGS
 |  dE/ion   |   1.402716E-005 |   2.000000E-005 |         eV | Yes | <-- LBFGS
 |  |F|max   |   4.868167E-002 |   5.000000E-002 |       eV/A | Yes | <-- LBFGS
 |  |dR|max  |   4.110906E-004 |   1.000000E-003 |          A | Yes | <-- LBFGS
 |   Smax    |   5.421562E-002 |   1.000000E-001 |        GPa | Yes | <-- LBFGS
 +-----------+-----------------+-----------------+------------+-----+ <-- LBFGS
  
 LBFGS: Geometry optimization completed successfully.

================================================================================
 LBFGS: Final Configuration:
================================================================================

                           -------------------------------
                                      Unit Cell
                           -------------------------------
        Real Lattice(A)              Reciprocal Lattice(1/A)
    19.1230500    -0.7864580    -0.0048572        0.327993641  -0.013922938   0.000677593
     0.7854600    18.5034760    -0.0046357        0.013940790   0.338976058  -0.000004574
    -0.0050913     0.0002427     2.4694731        0.000671305   0.000608946   2.544343828

                       Lattice parameters(A)       Cell Angles
                    a =     19.139216          alpha =   90.013725
                    b =     18.520140          beta  =   90.132799
                    c =      2.469478          gamma =   89.924318

                Current cell volume =           875.330520 A**3
                            density =             0.274427 amu/A**3
                                    =             0.455696 g/cm^3

                           -------------------------------
                                     Cell Contents
                           -------------------------------

            xxxxxxxxxxxxxxxxxxxxxxxxxxxxxxxxxxxxxxxxxxxxxxxxxxxxxxxxxxxxxxxxx
            x  Element         Atom        Fractional coordinates of atoms  x
            x                 Number           u          v          w      x
            x---------------------------------------------------------------x
            x  C                 1         0.637045   0.517073   0.502127   x
            x  C                 2         0.589256   0.413000   0.001587   x
            x  C                 3         0.491157   0.358245   0.500756   x
            x  C                 4         0.380392   0.372455  -0.000040   x
            x  C                 5         0.298581   0.450921   0.499490   x
            x  C                 6         0.277416   0.564120  -0.000458   x
            x  C                 7         0.325178   0.668208   0.500103   x
            x  C                 8         0.423272   0.722968   0.000939   x
            x  C                 9         0.534034   0.708724   0.501719   x
            x  C                10         0.615857   0.630266   0.002170   x
            x  C                11         0.628383   0.479074   0.001958   x
            x  C                12         0.560479   0.387730   0.501227   x
            x  C                13         0.453500   0.355058   0.000347   x
            x  C                14         0.347929   0.392485   0.499653   x
            x  C                15         0.283810   0.486886  -0.000594   x
            x  C                16         0.286074   0.602120   0.499715   x
            x  C                17         0.353948   0.693486   0.000466   x
            x  C                18         0.460931   0.726143   0.501346   x
            x  C                19         0.566497   0.688691   0.002022   x
            x  C                20         0.630638   0.594306   0.502255   x
            xxxxxxxxxxxxxxxxxxxxxxxxxxxxxxxxxxxxxxxxxxxxxxxxxxxxxxxxxxxxxxxxx


 LBFGS: Final Enthalpy     = -3.14109602E+003 eV
 LBFGS: Final <frequency>  unchanged from initial value
 LBFGS: Final bulk modulus unchanged from initial value

 ************************************** Forces **************************************
 *                                                                                  *
 *                           Cartesian components (eV/A)                            *
 * -------------------------------------------------------------------------------- *
 *                         x                    y                    z              *
 *                                                                                  *
 * C               1     -0.03517              0.00581              0.00862         *
 * C               2     -0.03562              0.03203              0.00624         *
 * C               3     -0.00676              0.02528              0.00165         *
 * C               4      0.02106              0.03553             -0.00367         *
 * C               5      0.03612              0.01898             -0.00749         *
 * C               6      0.03453             -0.00548             -0.00848         *
 * C               7      0.03585             -0.03231             -0.00641         *
 * C               8      0.00718             -0.02598             -0.00189         *
 * C               9     -0.02076             -0.03508              0.00365         *
 * C              10     -0.03640             -0.01878              0.00778         *
 * C              11     -0.03719              0.01649              0.00834         *
 * C              12     -0.02523              0.03492              0.00533         *
 * C              13      0.00349              0.02521              0.00042         *
 * C              14      0.03207              0.03376             -0.00474         *
 * C              15      0.03493              0.00803             -0.00800         *
 * C              16      0.03652             -0.01614             -0.00826         *
 * C              17      0.02582             -0.03575             -0.00555         *
 * C              18     -0.00319             -0.02530             -0.00063         *
 * C              19     -0.03201             -0.03348              0.00478         *
 * C              20     -0.03524             -0.00775              0.00831         *
 *                                                                                  *
 ************************************************************************************

 Pseudo atomic calculation performed for C 2s2 2p2

 Converged in 36 iterations to a total energy of -148.5530 eV
Charge spilling parameter for spin component 1 = 1.11%

            Orbital Populations       
     Ion    Atom   Orbital             Charge
  -------------------------------------------
      C     1      S                    1.059
      C     1      Px                   0.998
      C     1      Py                   0.972
      C     1      Pz                   0.971
      C     2      S                    1.059
      C     2      Px                   0.982
      C     2      Py                   0.988
      C     2      Pz                   0.971
      C     3      S                    1.058
      C     3      Px                   0.970
      C     3      Py                   1.001
      C     3      Pz                   0.971
      C     4      S                    1.059
      C     4      Px                   0.979
      C     4      Py                   0.992
      C     4      Pz                   0.971
      C     5      S                    1.059
      C     5      Px                   0.996
      C     5      Py                   0.974
      C     5      Pz                   0.971
      C     6      S                    1.058
      C     6      Px                   0.998
      C     6      Py                   0.972
      C     6      Pz                   0.971
      C     7      S                    1.059
      C     7      Px                   0.982
      C     7      Py                   0.988
      C     7      Pz                   0.971
      C     8      S                    1.058
      C     8      Px                   0.970
      C     8      Py                   1.001
      C     8      Pz                   0.971
      C     9      S                    1.058
      C     9      Px                   0.979
      C     9      Py                   0.992
      C     9      Pz                   0.971
      C    10      S                    1.059
      C    10      Px                   0.996
      C    10      Py                   0.974
      C    10      Pz                   0.971
      C    11      S                    1.059
      C    11      Px                   0.998
      C    11      Py                   0.973
      C    11      Pz                   0.971
      C    12      S                    1.059
      C    12      Px                   0.981
      C    12      Py                   0.990
      C    12      Pz                   0.971
      C    13      S                    1.058
      C    13      Px                   0.970
      C    13      Py                   1.001
      C    13      Pz                   0.971
      C    14      S                    1.059
      C    14      Px                   0.980
      C    14      Py                   0.991
      C    14      Pz                   0.971
      C    15      S                    1.059
      C    15      Px                   0.997
      C    15      Py                   0.974
      C    15      Pz                   0.971
      C    16      S                    1.059
      C    16      Px                   0.998
      C    16      Py                   0.973
      C    16      Pz                   0.971
      C    17      S                    1.059
      C    17      Px                   0.981
      C    17      Py                   0.990
      C    17      Pz                   0.971
      C    18      S                    1.058
      C    18      Px                   0.970
      C    18      Py                   1.001
      C    18      Pz                   0.971
      C    19      S                    1.059
      C    19      Px                   0.980
      C    19      Py                   0.991
      C    19      Pz                   0.971
      C    20      S                    1.059
      C    20      Px                   0.997
      C    20      Py                   0.974
      C    20      Pz                   0.971
  -------------------------------------------
                           Total:      79.998
  -------------------------------------------

     Atomic Populations (Mulliken)
     -----------------------------
Species          Ion     s       p       d       f      Total   Charge (e)
==========================================================================
  C               1     1.059   2.941   0.000   0.000   4.000     0.000
  C               2     1.059   2.941   0.000   0.000   4.000    -0.000
  C               3     1.058   2.942   0.000   0.000   4.000     0.000
  C               4     1.059   2.941   0.000   0.000   4.000     0.000
  C               5     1.059   2.941   0.000   0.000   4.000     0.000
  C               6     1.058   2.941   0.000   0.000   4.000     0.000
  C               7     1.059   2.941   0.000   0.000   4.000    -0.000
  C               8     1.058   2.942   0.000   0.000   4.000     0.000
  C               9     1.058   2.941   0.000   0.000   4.000     0.000
  C              10     1.059   2.941   0.000   0.000   4.000     0.000
  C              11     1.059   2.941   0.000   0.000   4.000     0.000
  C              12     1.059   2.941   0.000   0.000   4.000     0.000
  C              13     1.058   2.942   0.000   0.000   4.000     0.000
  C              14     1.059   2.941   0.000   0.000   4.000    -0.000
  C              15     1.059   2.941   0.000   0.000   4.000     0.000
  C              16     1.059   2.941   0.000   0.000   4.000     0.000
  C              17     1.059   2.941   0.000   0.000   4.000     0.000
  C              18     1.058   2.942   0.000   0.000   4.000     0.000
  C              19     1.059   2.941   0.000   0.000   4.000    -0.000
  C              20     1.059   2.941   0.000   0.000   4.000     0.000
==========================================================================

                 Bond                   Population      Length (A)
======================================================================
              C 3  -- C 13                   2.17        1.43037
              C 8  -- C 18                   2.17        1.43037
              C 9  -- C 19                   2.17        1.43044
              C 4  -- C 14                   2.17        1.43044
              C 2  -- C 12                   2.17        1.43052
              C 7  -- C 17                   2.17        1.43053
              C 5  -- C 15                   2.17        1.43071
              C 10 -- C 20                   2.17        1.43071
              C 1  -- C 11                   2.17        1.43084
              C 6  -- C 16                   2.17        1.43085
              C 3  -- C 12                   0.87        1.43542
              C 4  -- C 13                   0.87        1.43543
              C 8  -- C 17                   0.87        1.43543
              C 9  -- C 18                   0.87        1.43544
              C 1  -- C 20                   0.87        1.43545
              C 6  -- C 15                   0.87        1.43545
              C 5  -- C 14                   0.87        1.43548
              C 2  -- C 11                   0.87        1.43548
              C 7  -- C 16                   0.87        1.43548
              C 10 -- C 19                   0.87        1.43549
              C 7  -- C 8                   -0.36        2.46510
              C 2  -- C 3                   -0.36        2.46512
              C 4  -- C 5                   -0.36        2.46514
              C 14 -- C 15                  -0.36        2.46515
              C 19 -- C 20                  -0.36        2.46516
              C 9  -- C 10                  -0.36        2.46516
              C 13 -- C 14                  -0.36        2.46517
              C 18 -- C 19                  -0.36        2.46519
              C 11 -- C 12                  -0.36        2.46521
              C 16 -- C 17                  -0.36        2.46522
              C 1  -- C 2                   -0.36        2.46531
              C 6  -- C 7                   -0.36        2.46537
              C 8  -- C 9                   -0.36        2.46565
              C 3  -- C 4                   -0.36        2.46565
              C 17 -- C 18                  -0.36        2.46565
              C 12 -- C 13                  -0.36        2.46566
              C 1  -- C 10                  -0.36        2.46579
              C 5  -- C 6                   -0.36        2.46579
              C 11 -- C 20                  -0.36        2.46594
              C 15 -- C 16                  -0.36        2.46596
======================================================================


Writing analysis data to C_nanotube.castep_bin

Writing model to C_nanotube.check
 
 A BibTeX formatted list of references used in this run has been written to 
 C_nanotube.bib
 
Initialisation time =      7.07 s
Calculation time    =  82872.48 s
Finalisation time   =     27.20 s
Total time          =  82906.75 s
Peak Memory Use     = 3008552 kB
  
Overall parallel efficiency rating: Excellent (96%)                             
  
Data was distributed by:-
k-point (250-way); efficiency rating: Excellent (96%)                           
