------------------------------------------------------------
          Invoking FHI-aims ...

          When using FHI-aims, please cite the following reference:

            Volker Blum, Ralf Gehrke, Felix Hanke, Paula Havu,
            Ville Havu, Xinguo Ren, Karsten Reuter, and Matthias Scheffler,
            'Ab Initio Molecular Simulations with Numeric Atom-Centered Orbitals',
            Computer Physics Communications 180, 2175-2196 (2009)

          In addition, many other developments in FHI-aims are likely important for
          your particular application. A partial list of references is given at the end of
          this file. Thank you for giving credit to the authors of these developments.

          For any questions about FHI-aims, please visit our slack channel at

            https://fhi-aims.slack.com

          and our main development and support site at

            https://aims-git.rz-berlin.mpg.de .

          The latter site, in particular, has a wiki to collect information, as well
          as an issue tracker to log discussions, suggest improvements, and report issues
          or bugs. https://aims-git.rz-berlin.mpg.de is also the main development site
          of the project and all new and updated code versions can be obtained there.
          Please send an email to aims-coordinators@fhi-berlin.mpg.de and we will add
          you to these sites. They are for you and everyone is welcome there.

------------------------------------------------------------



  Date     :  20220322, Time     :  182447.643
  Time zero on CPU 1             :   0.136668900000000E+01  s.
  Internal wall clock time zero  :           417205487.643  s.

  FHI-aims created a unique identifier for this run for later identification
  aims_uuid : 1B949828-68C9-46C9-A5C8-49D34859C8AB

  Build configuration of the current instance of FHI-aims
  -------------------------------------------------------
  FHI-aims version      : 210716.2
  Commit number         : GITDIR-NOTFOUND
  CMake host system     : Linux-4.18.0-305.12.1.el8_4.x86_64
  CMake version         : 3.21.1
  Fortran compiler      : /sulis/institutions/warwick/easybuild/software/OpenMPI/4.1.1-GCC-11.2.0/bin/mpifort (GNU) version 11.2.0
  Fortran compiler flags: -O3 -march=native -mno-recip -I$(EBROOTHDF5)/include -fallow-argument-mismatch -ffree-line-length-none -O3 -DNDEBUG -O3
  C compiler            : /sulis/institutions/warwick/easybuild/software/GCCcore/11.2.0/bin/gcc (GNU) version 11.2.0
  C compiler flags      : -O3 -march=native -mno-recip -std=gnu99 -O3 -DNDEBUG
  ELPA2 kernel          : AVX2
  Using MPI
  Using ScaLAPACK
  Using LibXC
  Using i-PI
  Using HDF5
  Using RLSY
  Using PLUMED
  Linking against: /sulis/institutions/warwick/easybuild/software/PLUMED/2.7.3-foss-2021b/lib/libplumed.so
                   /sulis/institutions/warwick/easybuild/software/HDF5/1.12.1-gompi-2021b/lib/libhdf5_fortran.so
                   /sulis/institutions/warwick/easybuild/software/ScaLAPACK/2.1.0-gompi-2021b-fb/lib/libscalapack.so
                   /sulis/institutions/warwick/easybuild/software/FlexiBLAS/3.0.4-GCC-11.2.0/lib/libflexiblas.so

  Using      128 parallel tasks.
  Task        0 on host node071.sulis.hpc reporting.
  Task        1 on host node071.sulis.hpc reporting.
  Task        2 on host node071.sulis.hpc reporting.
  Task        3 on host node071.sulis.hpc reporting.
  Task        4 on host node071.sulis.hpc reporting.
  Task        5 on host node071.sulis.hpc reporting.
  Task        6 on host node071.sulis.hpc reporting.
  Task        7 on host node071.sulis.hpc reporting.
  Task        8 on host node071.sulis.hpc reporting.
  Task        9 on host node071.sulis.hpc reporting.
  Task       10 on host node071.sulis.hpc reporting.
  Task       11 on host node071.sulis.hpc reporting.
  Task       12 on host node071.sulis.hpc reporting.
  Task       13 on host node071.sulis.hpc reporting.
  Task       14 on host node071.sulis.hpc reporting.
  Task       15 on host node071.sulis.hpc reporting.
  Task       16 on host node071.sulis.hpc reporting.
  Task       17 on host node071.sulis.hpc reporting.
  Task       18 on host node071.sulis.hpc reporting.
  Task       19 on host node071.sulis.hpc reporting.
  Task       20 on host node071.sulis.hpc reporting.
  Task       21 on host node071.sulis.hpc reporting.
  Task       22 on host node071.sulis.hpc reporting.
  Task       23 on host node071.sulis.hpc reporting.
  Task       24 on host node071.sulis.hpc reporting.
  Task       25 on host node071.sulis.hpc reporting.
  Task       26 on host node071.sulis.hpc reporting.
  Task       27 on host node071.sulis.hpc reporting.
  Task       28 on host node071.sulis.hpc reporting.
  Task       29 on host node071.sulis.hpc reporting.
  Task       30 on host node071.sulis.hpc reporting.
  Task       31 on host node071.sulis.hpc reporting.
  Task       32 on host node071.sulis.hpc reporting.
  Task       33 on host node071.sulis.hpc reporting.
  Task       34 on host node071.sulis.hpc reporting.
  Task       35 on host node071.sulis.hpc reporting.
  Task       36 on host node071.sulis.hpc reporting.
  Task       37 on host node071.sulis.hpc reporting.
  Task       38 on host node071.sulis.hpc reporting.
  Task       39 on host node071.sulis.hpc reporting.
  Task       40 on host node071.sulis.hpc reporting.
  Task       41 on host node071.sulis.hpc reporting.
  Task       42 on host node071.sulis.hpc reporting.
  Task       43 on host node071.sulis.hpc reporting.
  Task       44 on host node071.sulis.hpc reporting.
  Task       45 on host node071.sulis.hpc reporting.
  Task       46 on host node071.sulis.hpc reporting.
  Task       47 on host node071.sulis.hpc reporting.
  Task       48 on host node071.sulis.hpc reporting.
  Task       49 on host node071.sulis.hpc reporting.
  Task       50 on host node071.sulis.hpc reporting.
  Task       51 on host node071.sulis.hpc reporting.
  Task       52 on host node071.sulis.hpc reporting.
  Task       53 on host node071.sulis.hpc reporting.
  Task       54 on host node071.sulis.hpc reporting.
  Task       55 on host node071.sulis.hpc reporting.
  Task       56 on host node071.sulis.hpc reporting.
  Task       57 on host node071.sulis.hpc reporting.
  Task       58 on host node071.sulis.hpc reporting.
  Task       59 on host node071.sulis.hpc reporting.
  Task       60 on host node071.sulis.hpc reporting.
  Task       61 on host node071.sulis.hpc reporting.
  Task       62 on host node071.sulis.hpc reporting.
  Task       63 on host node071.sulis.hpc reporting.
  Task       64 on host node071.sulis.hpc reporting.
  Task       65 on host node071.sulis.hpc reporting.
  Task       66 on host node071.sulis.hpc reporting.
  Task       67 on host node071.sulis.hpc reporting.
  Task       68 on host node071.sulis.hpc reporting.
  Task       69 on host node071.sulis.hpc reporting.
  Task       70 on host node071.sulis.hpc reporting.
  Task       71 on host node071.sulis.hpc reporting.
  Task       72 on host node071.sulis.hpc reporting.
  Task       73 on host node071.sulis.hpc reporting.
  Task       74 on host node071.sulis.hpc reporting.
  Task       75 on host node071.sulis.hpc reporting.
  Task       76 on host node071.sulis.hpc reporting.
  Task       77 on host node071.sulis.hpc reporting.
  Task       78 on host node071.sulis.hpc reporting.
  Task       79 on host node071.sulis.hpc reporting.
  Task       80 on host node071.sulis.hpc reporting.
  Task       81 on host node071.sulis.hpc reporting.
  Task       82 on host node071.sulis.hpc reporting.
  Task       83 on host node071.sulis.hpc reporting.
  Task       84 on host node071.sulis.hpc reporting.
  Task       85 on host node071.sulis.hpc reporting.
  Task       86 on host node071.sulis.hpc reporting.
  Task       87 on host node071.sulis.hpc reporting.
  Task       88 on host node071.sulis.hpc reporting.
  Task       89 on host node071.sulis.hpc reporting.
  Task       90 on host node071.sulis.hpc reporting.
  Task       91 on host node071.sulis.hpc reporting.
  Task       92 on host node071.sulis.hpc reporting.
  Task       93 on host node071.sulis.hpc reporting.
  Task       94 on host node071.sulis.hpc reporting.
  Task       95 on host node071.sulis.hpc reporting.
  Task       96 on host node071.sulis.hpc reporting.
  Task       97 on host node071.sulis.hpc reporting.
  Task       98 on host node071.sulis.hpc reporting.
  Task       99 on host node071.sulis.hpc reporting.
  Task      100 on host node071.sulis.hpc reporting.
  Task      101 on host node071.sulis.hpc reporting.
  Task      102 on host node071.sulis.hpc reporting.
  Task      103 on host node071.sulis.hpc reporting.
  Task      104 on host node071.sulis.hpc reporting.
  Task      105 on host node071.sulis.hpc reporting.
  Task      106 on host node071.sulis.hpc reporting.
  Task      107 on host node071.sulis.hpc reporting.
  Task      108 on host node071.sulis.hpc reporting.
  Task      109 on host node071.sulis.hpc reporting.
  Task      110 on host node071.sulis.hpc reporting.
  Task      111 on host node071.sulis.hpc reporting.
  Task      112 on host node071.sulis.hpc reporting.
  Task      113 on host node071.sulis.hpc reporting.
  Task      114 on host node071.sulis.hpc reporting.
  Task      115 on host node071.sulis.hpc reporting.
  Task      116 on host node071.sulis.hpc reporting.
  Task      117 on host node071.sulis.hpc reporting.
  Task      118 on host node071.sulis.hpc reporting.
  Task      119 on host node071.sulis.hpc reporting.
  Task      120 on host node071.sulis.hpc reporting.
  Task      121 on host node071.sulis.hpc reporting.
  Task      122 on host node071.sulis.hpc reporting.
  Task      123 on host node071.sulis.hpc reporting.
  Task      124 on host node071.sulis.hpc reporting.
  Task      125 on host node071.sulis.hpc reporting.
  Task      126 on host node071.sulis.hpc reporting.
  Task      127 on host node071.sulis.hpc reporting.

  Performing system and environment tests:
  | Environment variable OMP_NUM_THREADS correctly set to 1.
  | Checking for ScaLAPACK...
  | Testing pdtran()...
  | All pdtran() tests passed.

  Obtaining array dimensions for all initial allocations:
  
  -----------------------------------------------------------------------
  Parsing control.in (first pass over file, find array dimensions only).
  The contents of control.in will be repeated verbatim below
  unless switched off by setting 'verbatim_writeout .false.' .
  in the first line of control.in .
  -----------------------------------------------------------------------
  
  #===============================================================================
  # FHI-aims file: ./control.in
  # Created using the Atomic Simulation Environment (ASE)
  # Tue Mar 22 18:22:56 2022
  #===============================================================================
  xc                                 blyp
  k_grid                             1 1 500
  occupation_type                    gaussian 0.68
  spin                               none
  default_initial_moment             0
  KS_method                          parallel
  RI_method                          LVL_fast
  preconditioner                     kerker 2.0
  sc_accuracy_forces                 0.0001
  #===============================================================================
  
  ################################################################################
  #
  #  FHI-aims code project
  #  VB, Fritz-Haber Institut, 2007
  #
  #  Suggested "safe" defaults for Be atom (to be pasted into control.in file)
  #
  ################################################################################
    species        Be
  #     global species definitions
      nucleus             4
      mass                9.012182
  #
      l_hartree           8
  #
      cut_pot             4.0  2.0  1.0
      basis_dep_cutoff    0.d0
  #
      radial_base         31 7.0
      radial_multiplier   2
      angular_grids       specified
        division   0.4283  110
        division   0.4792  194
        division   0.5061  302
        division   0.7227  434
        division   0.8724  590
  #      division   0.9555  770
  #      division   2.9770  974
  #      outer_grid   974
        outer_grid 590
  ################################################################################
  #
  #  Definition of "minimal" basis
  #
  ################################################################################
  #     valence basis states
      valence      2  s   2.
  #     ion occupancy
      ion_occ      2  s   1.
  ################################################################################
  #
  #  Suggested additional basis functions. For production calculations,
  #  uncomment them one after another (the most important basis functions are
  #  listed first).
  #
  #  Constructed for dimers: 1.75 A, 2.0 A, 2.375 A, 3.00 A, 4.00 A
  #
  ################################################################################
  #  "First tier" - improvements: -677.26 meV to -34.75 meV
       ionic 2 p auto
       hydro 3 s 2.9
       hydro 3 d 3.5
  #  "Second tier" - improvements: -16.34 meV to -1.26 meV
       hydro 3 p 3.1
       hydro 4 d 4.7
       hydro 3 p 2.4
       hydro 4 f 7.6
       hydro 2 s 2.9
  #  "Third tier" - improvements: -0.27 meV to -0.05 meV
  #     hydro 2 p 8.2
  #     hydro 5 g 10.8
  #     hydro 4 f 7
  #     hydro 3 s 2.3
  #     hydro 4 d 3.8
  ################################################################################
  #
  #  FHI-aims code project
  #  VB, Fritz-Haber Institut, 2007
  #
  #  Suggested "safe" defaults for C atom (to be pasted into control.in file)
  #
  ################################################################################
    species        C
  #     global species definitions
      nucleus             6
      mass                12.0107
  #
      l_hartree           8
  #
      cut_pot             4.0  2.0  1.0
      basis_dep_cutoff    0.d0
  #
      radial_base         34 7.0
      radial_multiplier   2
      angular_grids specified
        division   0.4031  110
        division   0.5191  194
        division   0.6263  302
        division   0.8150  434
        division   0.8501  590
  #     division   0.9238  770
  #     division   1.6076  974
  #     outer_grid  974
       outer_grid 590
  ################################################################################
  #
  #  Definition of "minimal" basis
  #
  ################################################################################
  #     valence basis states
      valence      2  s   2.
      valence      2  p   2.
  #     ion occupancy
      ion_occ      2  s   1.
      ion_occ      2  p   1.
  ################################################################################
  #
  #  Suggested additional basis functions. For production calculations,
  #  uncomment them one after another (the most important basis functions are
  #  listed first).
  #
  #  Constructed for dimers: 1.0 A, 1.25 A, 1.5 A, 2.0 A, 3.0 A
  #
  ################################################################################
  #  "First tier" - improvements: -1214.57 meV to -155.61 meV
       hydro 2 p 1.7
       hydro 3 d 6
       hydro 2 s 4.9
  #  "Second tier" - improvements: -67.75 meV to -5.23 meV
       hydro 4 f 9.8
       hydro 3 p 5.2
       hydro 3 s 4.3
       hydro 5 g 14.4
       hydro 3 d 6.2
  #  "Third tier" - improvements: -2.43 meV to -0.60 meV
  #     hydro 2 p 5.6
  #     hydro 2 s 1.4
  #     hydro 3 d 4.9
  #     hydro 4 f 11.2
  #  "Fourth tier" - improvements: -0.39 meV to -0.18 meV
  #     hydro 2 p 2.1
  #     hydro 5 g 16.4
  #     hydro 4 d 13.2
  #     hydro 3 s 13.6
  #     hydro 4 f 17.6
  #  Further basis functions - improvements: -0.08 meV and below
  #     hydro 3 s 2
  #     hydro 3 p 6
  #     hydro 4 d 20
  
  -----------------------------------------------------------------------
  Completed first pass over input file control.in .
  -----------------------------------------------------------------------
  
  
  -----------------------------------------------------------------------
  Parsing geometry.in (first pass over file, find array dimensions only).
  The contents of geometry.in will be repeated verbatim below
  unless switched off by setting 'verbatim_writeout .false.' .
  in the first line of geometry.in .
  -----------------------------------------------------------------------
  
  #=======================================================
  # FHI-aims file: ./geometry.in
  # Created using the Atomic Simulation Environment (ASE)
  # Tue Mar 22 18:22:56 2022
  #=======================================================
  lattice_vector 19.1230500920855988 -0.7864584387815090 -0.0047368448756341
  lattice_vector 0.7854599010840190 18.5034761550599001 -0.0046123434535686
  lattice_vector -0.0050596542637402 0.0002380741830080 2.4467731590289699
  atom 9.1733798699999998 9.6406776300000008 0.9222642900000000 Be
  atom 12.5970435900000002 9.0621983600000000 1.2207144700000001 C
  atom 11.6104499099999998 7.1690815499999996 -0.0026821200000000 C
  atom 9.6759293599999996 6.2313117699999996 1.2207965400000000 C
  atom 7.5565995299999997 6.5786306300000001 -0.0026495200000000 C
  atom 6.0471186799999996 8.1028299399999995 1.2207284199999999 C
  atom 5.7366170700000003 10.2242093199999999 -0.0025475100000000 C
  atom 6.7237378300000001 12.1175589600000002 1.2210965899999999 C
  atom 8.6568988499999993 13.0572907300000001 -0.0024733300000000 C
  atom 10.7765708399999998 12.7071530100000007 1.2208202900000000 C
  atom 12.2867522099999995 11.1843897699999992 -0.0030533600000000 C
  atom 12.4059745100000001 8.3652185299999999 -0.0028307800000000 C
  atom 11.0321011400000000 6.7210745200000002 1.2204182200000000 C
  atom 8.9507007000000005 6.2021792900000001 -0.0032457800000000 C
  atom 6.9425498200000000 6.9749450499999996 1.2208455300000001 C
  atom 5.7973910699999998 8.7859034200000004 -0.0025309700000000 C
  atom 5.9282789300000003 10.9205911699999998 1.2209093499999999 C
  atom 7.3007572700000001 12.5673149399999993 -0.0021683700000000 C
  atom 9.3823745899999995 13.0836149200000005 1.2215313299999999 C
  atom 11.3915658999999998 12.3120488100000003 -0.0024826200000000 C
  atom 12.5359538199999996 10.5008087499999991 1.2205678000000000 C
  
  -----------------------------------------------------------------------
  Completed first pass over input file geometry.in .
  -----------------------------------------------------------------------
  

  Basic array size parameters:
  | Number of species                 :        2
  | Number of atoms                   :       21
  | Number of lattice vectors         :        3
  | Max. basis fn. angular momentum   :        4
  | Max. atomic/ionic basis occupied n:        2
  | Max. number of basis fn. types    :        3
  | Max. radial fns per species/type  :        8
  | Max. logarithmic grid size        :     1277
  | Max. radial integration grid size :       69
  | Max. angular integration grid size:      590
  | Max. angular grid division number :        8
  | Radial grid for Hartree potential :     1277
  | Number of spin channels           :        1

------------------------------------------------------------
          Reading file control.in.
------------------------------------------------------------
  XC: Using BLYP gradient-corrected functional.
  Found k-point grid:         1         1       500
  Occupation type: Gaussian broadening, width =   0.680000E+00 eV.
  Spin treatment: No spin polarisation.
  Initial spin moment per atom:   0.0000
  Kohn-Sham electronic structure solved by the ELSI library.
  The 'LVL' version of RI (resolution of identity) technique is used.
  ** This is a localized expansion of all basis function products.
     Its intended use are Hartree-Fock and hybrid functionals.
     For RPA, MP2, GW, etc., LVL is not yet as accurate. In those cases, check carefully.
  Using Kerker preconditioning with damping at q_0 =     0.2000E+01
  Convergence accuracy of forces:  0.1000E-03

  Reading configuration options for species Be                  .
  | Found nuclear charge :   4.0000
  | Found atomic mass :    9.0121819999999992      amu
  | Found l_max for Hartree potential  :   8
  | Found cutoff potl. onset [A], width [A], scale factor :    4.00000    2.00000    1.00000
  | Threshold for basis-dependent cutoff potential is   0.000000E+00
  | Found data for basic radial integration grid :    31 points, outermost radius =    7.000 A
  | Found multiplier for basic radial grid :   2
  | Found angular grid specification: user-specified.
  | Specified grid contains     6 separate shells.
  | Check grid settings after all constraints further below.
  | Found free-atom valence shell :  2 s   2.000
  | Found free-ion valence shell :  2 s   1.000
  | Found ionic basis function :  2 p , default cutoff radius.
  | Found hydrogenic basis function :  3 s   2.900
  | Found hydrogenic basis function :  3 d   3.500
  | Found hydrogenic basis function :  3 p   3.100
  | Found hydrogenic basis function :  4 d   4.700
  | Found hydrogenic basis function :  3 p   2.400
  | Found hydrogenic basis function :  4 f   7.600
  | Found hydrogenic basis function :  2 s   2.900
  Species Be                  : Missing cutoff potential type.
  Defaulting to exp(1/x)/(1-x)^2 type cutoff potential.
  Species Be: No 'logarithmic' tag. Using default grid for free atom:
  | Default logarithmic grid data [bohr] : 0.1000E-03 0.1000E+03 0.1012E+01
  | Will include ionic basis functions of  1.0-fold positive Be                   ion.
  Species Be: On-site basis accuracy parameter (for Gram-Schmidt orthonormalisation) not specified.
  Using default value basis_acc =  0.1000000E-03.
  Species Be                  : Using default innermost maximum threshold i_radial=  2 for radial functions.
  Species Be                  : Default cutoff onset for free atom density etc. : 0.40000000E+01 AA.
  Species Be                  : Basic radial grid will be enhanced according to radial_multiplier =   2, to contain    63 grid points.

  Reading configuration options for species C                   .
  | Found nuclear charge :   6.0000
  | Found atomic mass :    12.010700000000000      amu
  | Found l_max for Hartree potential  :   8
  | Found cutoff potl. onset [A], width [A], scale factor :    4.00000    2.00000    1.00000
  | Threshold for basis-dependent cutoff potential is   0.000000E+00
  | Found data for basic radial integration grid :    34 points, outermost radius =    7.000 A
  | Found multiplier for basic radial grid :   2
  | Found angular grid specification: user-specified.
  | Specified grid contains     6 separate shells.
  | Check grid settings after all constraints further below.
  | Found free-atom valence shell :  2 s   2.000
  | Found free-atom valence shell :  2 p   2.000
  | Found free-ion valence shell :  2 s   1.000
  | Found free-ion valence shell :  2 p   1.000
  | Found hydrogenic basis function :  2 p   1.700
  | Found hydrogenic basis function :  3 d   6.000
  | Found hydrogenic basis function :  2 s   4.900
  | Found hydrogenic basis function :  4 f   9.800
  | Found hydrogenic basis function :  3 p   5.200
  | Found hydrogenic basis function :  3 s   4.300
  | Found hydrogenic basis function :  5 g  14.400
  | Found hydrogenic basis function :  3 d   6.200
  Species C                   : Missing cutoff potential type.
  Defaulting to exp(1/x)/(1-x)^2 type cutoff potential.
  Species C : No 'logarithmic' tag. Using default grid for free atom:
  | Default logarithmic grid data [bohr] : 0.1000E-03 0.1000E+03 0.1012E+01
  Species C : On-site basis accuracy parameter (for Gram-Schmidt orthonormalisation) not specified.
  Using default value basis_acc =  0.1000000E-03.
  Species C                   : Using default innermost maximum threshold i_radial=  2 for radial functions.
  Species C                   : Default cutoff onset for free atom density etc. : 0.40000000E+01 AA.
  Species C                   : Basic radial grid will be enhanced according to radial_multiplier =   2, to contain    69 grid points.

  Finished reading input file 'control.in'.

------------------------------------------------------------


------------------------------------------------------------
          Reading geometry description geometry.in.
------------------------------------------------------------
  | The smallest distance between any two atoms is         1.42074932 AA.
  | The first atom of this pair is atom number                     17 .
  | The second atom of this pair is atom number                     7 .
  | Wigner-Seitz cell of the first atom image           0     0     1 .
  | (The Wigner-Seitz cell of the second atom is 0 0 0  by definition.)

  Symmetry information by spglib:
  | Precision set to  0.1E-04
  | Number of Operations  : 1
  | Space group           : 1
  | International         : P1
  | Schoenflies           : C1^1
  Input structure read successfully.
  The structure contains       21 atoms,  and a total of        124.000 electrons.

  Input geometry:
  | Unit cell:
  |       19.12305009       -0.78645844       -0.00473684
  |        0.78545990       18.50347616       -0.00461234
  |       -0.00505965        0.00023807        2.44677316
  | Atomic structure:
  |       Atom                x [A]            y [A]            z [A]
  |    1: Species Be            9.17337987        9.64067763        0.92226429
  |    2: Species C            12.59704359        9.06219836        1.22071447
  |    3: Species C            11.61044991        7.16908155       -0.00268212
  |    4: Species C             9.67592936        6.23131177        1.22079654
  |    5: Species C             7.55659953        6.57863063       -0.00264952
  |    6: Species C             6.04711868        8.10282994        1.22072842
  |    7: Species C             5.73661707       10.22420932       -0.00254751
  |    8: Species C             6.72373783       12.11755896        1.22109659
  |    9: Species C             8.65689885       13.05729073       -0.00247333
  |   10: Species C            10.77657084       12.70715301        1.22082029
  |   11: Species C            12.28675221       11.18438977       -0.00305336
  |   12: Species C            12.40597451        8.36521853       -0.00283078
  |   13: Species C            11.03210114        6.72107452        1.22041822
  |   14: Species C             8.95070070        6.20217929       -0.00324578
  |   15: Species C             6.94254982        6.97494505        1.22084553
  |   16: Species C             5.79739107        8.78590342       -0.00253097
  |   17: Species C             5.92827893       10.92059117        1.22090935
  |   18: Species C             7.30075727       12.56731494       -0.00216837
  |   19: Species C             9.38237459       13.08361492        1.22153133
  |   20: Species C            11.39156590       12.31204881       -0.00248262
  |   21: Species C            12.53595382       10.50080875        1.22056780

  Lattice parameters for 3D lattice (in Angstroms) :    19.139216   18.520140    2.446778
  Angle(s) between unit vectors (in degrees)       :    90.013724   90.132791   89.924320


  Quantities derived from the lattice vectors:
  | Reciprocal lattice vector 1:  0.327994 -0.013923  0.000680
  | Reciprocal lattice vector 2:  0.013941  0.338976 -0.000004
  | Reciprocal lattice vector 3:  0.000661  0.000612  2.567949
  | Unit cell volume                               :   0.867284E+03  A^3

  Fractional coordinates:
                         L1                L2                L3
       atom_frac         0.45760396        0.54046461        0.37883557  Be
       atom_frac         0.63763953        0.51685186        0.50111665  C
       atom_frac         0.59020019        0.41253055        0.00082406  C
       atom_frac         0.49142507        0.35764512        0.50056701  C
       atom_frac         0.37989026        0.37168143        0.00035323  C
       atom_frac         0.29784747        0.45056158        0.50033957  C
       atom_frac         0.27680564        0.56432128        0.00055850  C
       atom_frac         0.32427200        0.66865631        0.50095232  C
       atom_frac         0.42297180        0.72364458        0.00117212  C
       atom_frac         0.53453070        0.70945695        0.50132336  C
       atom_frac         0.61660682        0.63065583        0.00113464  C
       atom_frac         0.62907748        0.47882687        0.00096355  C
       atom_frac         0.56113438        0.38707668        0.50060283  C
       atom_frac         0.45349898        0.35446514        0.00021959  C
       atom_frac         0.34708990        0.39169925        0.50037180  C
       atom_frac         0.28316530        0.48685993        0.00043155  C
       atom_frac         0.28539996        0.60231532        0.50067548  C
       atom_frac         0.35326453        0.69420159        0.00110631  C
       atom_frac         0.46091701        0.72667360        0.50150390  C
       atom_frac         0.56737775        0.68950652        0.00138354  C
       atom_frac         0.63126269        0.59432894        0.50119041  C


  Finished reading input file 'control.in'.


------------------------------------------------------------
          Reading geometry description geometry.in.
------------------------------------------------------------

  Consistency checks for stacksize environment parameter are next.

  | Maximum stacksize for task 0: unlimited
  | Maximum stacksize for task 1: unlimited
  | Maximum stacksize for task 2: unlimited
  | Maximum stacksize for task 3: unlimited
  | Maximum stacksize for task 4: unlimited
  | Maximum stacksize for task 5: unlimited
  | Maximum stacksize for task 6: unlimited
  | Maximum stacksize for task 7: unlimited
  | Maximum stacksize for task 8: unlimited
  | Maximum stacksize for task 9: unlimited
  | Maximum stacksize for task 10: unlimited
  | Maximum stacksize for task 11: unlimited
  | Maximum stacksize for task 12: unlimited
  | Maximum stacksize for task 13: unlimited
  | Maximum stacksize for task 14: unlimited
  | Maximum stacksize for task 15: unlimited
  | Maximum stacksize for task 16: unlimited
  | Maximum stacksize for task 17: unlimited
  | Maximum stacksize for task 18: unlimited
  | Maximum stacksize for task 19: unlimited
  | Maximum stacksize for task 20: unlimited
  | Maximum stacksize for task 21: unlimited
  | Maximum stacksize for task 22: unlimited
  | Maximum stacksize for task 23: unlimited
  | Maximum stacksize for task 24: unlimited
  | Maximum stacksize for task 25: unlimited
  | Maximum stacksize for task 26: unlimited
  | Maximum stacksize for task 27: unlimited
  | Maximum stacksize for task 28: unlimited
  | Maximum stacksize for task 29: unlimited
  | Maximum stacksize for task 30: unlimited
  | Maximum stacksize for task 31: unlimited
  | Maximum stacksize for task 32: unlimited
  | Maximum stacksize for task 33: unlimited
  | Maximum stacksize for task 34: unlimited
  | Maximum stacksize for task 35: unlimited
  | Maximum stacksize for task 36: unlimited
  | Maximum stacksize for task 37: unlimited
  | Maximum stacksize for task 38: unlimited
  | Maximum stacksize for task 39: unlimited
  | Maximum stacksize for task 40: unlimited
  | Maximum stacksize for task 41: unlimited
  | Maximum stacksize for task 42: unlimited
  | Maximum stacksize for task 43: unlimited
  | Maximum stacksize for task 44: unlimited
  | Maximum stacksize for task 45: unlimited
  | Maximum stacksize for task 46: unlimited
  | Maximum stacksize for task 47: unlimited
  | Maximum stacksize for task 48: unlimited
  | Maximum stacksize for task 49: unlimited
  | Maximum stacksize for task 50: unlimited
  | Maximum stacksize for task 51: unlimited
  | Maximum stacksize for task 52: unlimited
  | Maximum stacksize for task 53: unlimited
  | Maximum stacksize for task 54: unlimited
  | Maximum stacksize for task 55: unlimited
  | Maximum stacksize for task 56: unlimited
  | Maximum stacksize for task 57: unlimited
  | Maximum stacksize for task 58: unlimited
  | Maximum stacksize for task 59: unlimited
  | Maximum stacksize for task 60: unlimited
  | Maximum stacksize for task 61: unlimited
  | Maximum stacksize for task 62: unlimited
  | Maximum stacksize for task 63: unlimited
  | Maximum stacksize for task 64: unlimited
  | Maximum stacksize for task 65: unlimited
  | Maximum stacksize for task 66: unlimited
  | Maximum stacksize for task 67: unlimited
  | Maximum stacksize for task 68: unlimited
  | Maximum stacksize for task 69: unlimited
  | Maximum stacksize for task 70: unlimited
  | Maximum stacksize for task 71: unlimited
  | Maximum stacksize for task 72: unlimited
  | Maximum stacksize for task 73: unlimited
  | Maximum stacksize for task 74: unlimited
  | Maximum stacksize for task 75: unlimited
  | Maximum stacksize for task 76: unlimited
  | Maximum stacksize for task 77: unlimited
  | Maximum stacksize for task 78: unlimited
  | Maximum stacksize for task 79: unlimited
  | Maximum stacksize for task 80: unlimited
  | Maximum stacksize for task 81: unlimited
  | Maximum stacksize for task 82: unlimited
  | Maximum stacksize for task 83: unlimited
  | Maximum stacksize for task 84: unlimited
  | Maximum stacksize for task 85: unlimited
  | Maximum stacksize for task 86: unlimited
  | Maximum stacksize for task 87: unlimited
  | Maximum stacksize for task 88: unlimited
  | Maximum stacksize for task 89: unlimited
  | Maximum stacksize for task 90: unlimited
  | Maximum stacksize for task 91: unlimited
  | Maximum stacksize for task 92: unlimited
  | Maximum stacksize for task 93: unlimited
  | Maximum stacksize for task 94: unlimited
  | Maximum stacksize for task 95: unlimited
  | Maximum stacksize for task 96: unlimited
  | Maximum stacksize for task 97: unlimited
  | Maximum stacksize for task 98: unlimited
  | Maximum stacksize for task 99: unlimited
  | Maximum stacksize for task 100: unlimited
  | Maximum stacksize for task 101: unlimited
  | Maximum stacksize for task 102: unlimited
  | Maximum stacksize for task 103: unlimited
  | Maximum stacksize for task 104: unlimited
  | Maximum stacksize for task 105: unlimited
  | Maximum stacksize for task 106: unlimited
  | Maximum stacksize for task 107: unlimited
  | Maximum stacksize for task 108: unlimited
  | Maximum stacksize for task 109: unlimited
  | Maximum stacksize for task 110: unlimited
  | Maximum stacksize for task 111: unlimited
  | Maximum stacksize for task 112: unlimited
  | Maximum stacksize for task 113: unlimited
  | Maximum stacksize for task 114: unlimited
  | Maximum stacksize for task 115: unlimited
  | Maximum stacksize for task 116: unlimited
  | Maximum stacksize for task 117: unlimited
  | Maximum stacksize for task 118: unlimited
  | Maximum stacksize for task 119: unlimited
  | Maximum stacksize for task 120: unlimited
  | Maximum stacksize for task 121: unlimited
  | Maximum stacksize for task 122: unlimited
  | Maximum stacksize for task 123: unlimited
  | Maximum stacksize for task 124: unlimited
  | Maximum stacksize for task 125: unlimited
  | Maximum stacksize for task 126: unlimited
  | Maximum stacksize for task 127: unlimited
  | Current stacksize for task 0: unlimited
  | Current stacksize for task 1: unlimited
  | Current stacksize for task 2: unlimited
  | Current stacksize for task 3: unlimited
  | Current stacksize for task 4: unlimited
  | Current stacksize for task 5: unlimited
  | Current stacksize for task 6: unlimited
  | Current stacksize for task 7: unlimited
  | Current stacksize for task 8: unlimited
  | Current stacksize for task 9: unlimited
  | Current stacksize for task 10: unlimited
  | Current stacksize for task 11: unlimited
  | Current stacksize for task 12: unlimited
  | Current stacksize for task 13: unlimited
  | Current stacksize for task 14: unlimited
  | Current stacksize for task 15: unlimited
  | Current stacksize for task 16: unlimited
  | Current stacksize for task 17: unlimited
  | Current stacksize for task 18: unlimited
  | Current stacksize for task 19: unlimited
  | Current stacksize for task 20: unlimited
  | Current stacksize for task 21: unlimited
  | Current stacksize for task 22: unlimited
  | Current stacksize for task 23: unlimited
  | Current stacksize for task 24: unlimited
  | Current stacksize for task 25: unlimited
  | Current stacksize for task 26: unlimited
  | Current stacksize for task 27: unlimited
  | Current stacksize for task 28: unlimited
  | Current stacksize for task 29: unlimited
  | Current stacksize for task 30: unlimited
  | Current stacksize for task 31: unlimited
  | Current stacksize for task 32: unlimited
  | Current stacksize for task 33: unlimited
  | Current stacksize for task 34: unlimited
  | Current stacksize for task 35: unlimited
  | Current stacksize for task 36: unlimited
  | Current stacksize for task 37: unlimited
  | Current stacksize for task 38: unlimited
  | Current stacksize for task 39: unlimited
  | Current stacksize for task 40: unlimited
  | Current stacksize for task 41: unlimited
  | Current stacksize for task 42: unlimited
  | Current stacksize for task 43: unlimited
  | Current stacksize for task 44: unlimited
  | Current stacksize for task 45: unlimited
  | Current stacksize for task 46: unlimited
  | Current stacksize for task 47: unlimited
  | Current stacksize for task 48: unlimited
  | Current stacksize for task 49: unlimited
  | Current stacksize for task 50: unlimited
  | Current stacksize for task 51: unlimited
  | Current stacksize for task 52: unlimited
  | Current stacksize for task 53: unlimited
  | Current stacksize for task 54: unlimited
  | Current stacksize for task 55: unlimited
  | Current stacksize for task 56: unlimited
  | Current stacksize for task 57: unlimited
  | Current stacksize for task 58: unlimited
  | Current stacksize for task 59: unlimited
  | Current stacksize for task 60: unlimited
  | Current stacksize for task 61: unlimited
  | Current stacksize for task 62: unlimited
  | Current stacksize for task 63: unlimited
  | Current stacksize for task 64: unlimited
  | Current stacksize for task 65: unlimited
  | Current stacksize for task 66: unlimited
  | Current stacksize for task 67: unlimited
  | Current stacksize for task 68: unlimited
  | Current stacksize for task 69: unlimited
  | Current stacksize for task 70: unlimited
  | Current stacksize for task 71: unlimited
  | Current stacksize for task 72: unlimited
  | Current stacksize for task 73: unlimited
  | Current stacksize for task 74: unlimited
  | Current stacksize for task 75: unlimited
  | Current stacksize for task 76: unlimited
  | Current stacksize for task 77: unlimited
  | Current stacksize for task 78: unlimited
  | Current stacksize for task 79: unlimited
  | Current stacksize for task 80: unlimited
  | Current stacksize for task 81: unlimited
  | Current stacksize for task 82: unlimited
  | Current stacksize for task 83: unlimited
  | Current stacksize for task 84: unlimited
  | Current stacksize for task 85: unlimited
  | Current stacksize for task 86: unlimited
  | Current stacksize for task 87: unlimited
  | Current stacksize for task 88: unlimited
  | Current stacksize for task 89: unlimited
  | Current stacksize for task 90: unlimited
  | Current stacksize for task 91: unlimited
  | Current stacksize for task 92: unlimited
  | Current stacksize for task 93: unlimited
  | Current stacksize for task 94: unlimited
  | Current stacksize for task 95: unlimited
  | Current stacksize for task 96: unlimited
  | Current stacksize for task 97: unlimited
  | Current stacksize for task 98: unlimited
  | Current stacksize for task 99: unlimited
  | Current stacksize for task 100: unlimited
  | Current stacksize for task 101: unlimited
  | Current stacksize for task 102: unlimited
  | Current stacksize for task 103: unlimited
  | Current stacksize for task 104: unlimited
  | Current stacksize for task 105: unlimited
  | Current stacksize for task 106: unlimited
  | Current stacksize for task 107: unlimited
  | Current stacksize for task 108: unlimited
  | Current stacksize for task 109: unlimited
  | Current stacksize for task 110: unlimited
  | Current stacksize for task 111: unlimited
  | Current stacksize for task 112: unlimited
  | Current stacksize for task 113: unlimited
  | Current stacksize for task 114: unlimited
  | Current stacksize for task 115: unlimited
  | Current stacksize for task 116: unlimited
  | Current stacksize for task 117: unlimited
  | Current stacksize for task 118: unlimited
  | Current stacksize for task 119: unlimited
  | Current stacksize for task 120: unlimited
  | Current stacksize for task 121: unlimited
  | Current stacksize for task 122: unlimited
  | Current stacksize for task 123: unlimited
  | Current stacksize for task 124: unlimited
  | Current stacksize for task 125: unlimited
  | Current stacksize for task 126: unlimited
  | Current stacksize for task 127: unlimited

  Consistency checks for the contents of control.in are next.

  MPI_IN_PLACE appears to work with this MPI implementation.
  | Keeping use_mpi_in_place .true. (see manual).
  Target number of points in a grid batch is not set. Defaulting to  100
  Method for grid partitioning is not set. Defaulting to parallel hash+maxmin partitioning.
  Batch size limit is not set. Defaulting to    200
  By default, will store active basis functions for each batch.
  If in need of memory, prune_basis_once .false. can be used to disable this option.
  communication_type for Hartree potential was not specified.
  Defaulting to calc_hartree .
  Defaulting to Pulay charge density mixer.
  Pulay mixer: Number of relevant iterations not set.
  Defaulting to    8 iterations.
  Pulay mixer: Number of initial linear mixing iterations not set.
  Defaulting to    0 iterations.
  Work space size for distributed Hartree potential not set.
  Defaulting to   0.200000E+03 MB.
  Mixing parameter for charge density mixing has not been set.
  Using default: charge_mix_param =     0.0500.
  The mixing parameter will be adjusted in iteration number     2 of the first full s.c.f. cycle only.
  Algorithm-dependent basis array size parameters:
  | n_max_pulay                         :        8
  Maximum number of self-consistency iterations not provided.
  Presetting  1000 iterations.
  Presetting      1001 iterations before the initial mixing cycle
  is restarted anyway using the sc_init_iter criterion / keyword.
  Presetting a factor      1.000 between actual scf density residual
  and density convergence criterion sc_accuracy_rho below which sc_init_iter
  takes no effect.
  Geometry relaxation not requested: no relaxation will be performed.
  Forces evaluation will include force correction term due to incomplete self-consistency (default).
 * Notice: The s.c.f. convergence criterion sc_accuracy_rho was not provided.
 * We used to stop in this case, and ask the user to provide reasonable
 * scf convergence criteria. However, this led some users to employ criteria
 * that led to extremely long run times, e.g., for simple relaxation.
 * We now preset a default value for sc_accuracy_rho if it is not set.
 * You may still wish to check if this setting is too tight or too loose for your needs.
 * Based on n_atoms and forces and force-correction status, FHI-aims chose sc_accuracy_rho =  0.149666E-04 .
  Handling of forces: Unphysical translation and rotation will be removed from forces.
  No accuracy limit for integral partition fn. given. Defaulting to  0.1000E-14.
  No threshold value for u(r) in integrations given. Defaulting to  0.1000E-05.
  No accuracy for occupation numbers given. Defaulting to  0.1000E-12.
  No threshold value for occupation numbers given. Defaulting to  0.0000E+00.
  No accuracy for fermi level given. Defaulting to  0.1000E-19.
  Maximum # of iterations to find E_F not set. Defaulting to  200.
 * You have   500 k-points in your system, but only   128 MPI-tasks available.
 * In this case using ScaLAPACK is not necessary / supported.
 * Switching to LAPACK (via ELSI) instead.
  Will not use alltoall communication since running on < 1024 CPUs.
  Threshold for basis singularities not set.
  Default threshold for basis singularities:  0.1000E-04
  partition_type (choice of integration weights) for integrals was not specified.
  | Using a version of the partition function of Stratmann and coworkers ('stratmann_sparse').
  | At each grid point, the set of atoms used to build the partition table is smoothly restricted to
  | only those atoms whose free-atom density would be non-zero at that grid point.
  Partitioning for Hartree potential was not defined. Using partition_type for integrals.
  | Adjusted default value of keyword multip_moments_threshold to:       0.10000000E-11
  | This value may affect high angular momentum components of the Hartree potential in periodic systems.
  Angular momentum expansion for Kerker preconditioner not set explicitly.
  | Using default value of   0
  No explicit requirement for turning off preconditioner.
  | By default, it will be turned off when the charge convergence reaches
  | sc_accuracy_rho  =   0.149666E-04
  No special mixing parameter while Kerker preconditioner is on.
  Using default: charge_mix_param =     0.0500.
  No q(lm)/r^(l+1) cutoff set for long-range Hartree potential.
  | Using default value of  0.100000E-09 .
  | Verify using the multipole_threshold keyword.
  Defaulting to new monopole extrapolation.
  Density update method: automatic selection selected.
  Using density matrix based charge density update.
  Using density matrix based charge density update.
  Using packed matrix style: index .
  Defaulting to use time-reversal symmetry for k-point grid.
  Charge integration errors on the 3D integration grid will be compensated
  by explicit normalization and distribution of residual charges.
  Use the "compensate_multipole_errors" flag to change this behaviour.
  Set 'collect_eigenvectors' to be '.true.' for all serial calculations. This is mandatory.
  Set 'collect_eigenvectors' to be '.true.' for KS_method lapack_fast and serial.

  Consistency checks for the contents of geometry.in are next.


  Range separation radius for Ewald summation (hartree_convergence_parameter):      5.00000000 bohr.
 * Warning! You did not set the 'relativistic' flag in input file 'control.in'.
 * Since you are not attempting to treat any elements beyond Ca(Z=20), FHI-aims
 * will default to 'relativistic none'.
 * You must ensure that this is really what you want!!
 * For example, DO NOT compute total-energy differences between results from
 * different settings of the 'relativistic' flag.
  Number of empty states per atom not set in control.in - providing a guess from actual geometry.
  | Total number of empty states used during s.c.f. cycle:       62
  If you use a very high smearing, use empty_states (per atom!) in control.in to increase this value.

  Structure-dependent array size parameters: 
  | Maximum number of distinct radial functions  :       21
  | Maximum number of basis functions            :      810
  | Number of Kohn-Sham states (occupied + empty):      124
------------------------------------------------------------

------------------------------------------------------------
          Preparing all fixed parts of the calculation.
------------------------------------------------------------
  Determining machine precision:
     2.2250738585072014E-308
  Setting up grids for atomic and cluster calculations.

  Creating wave function, potential, and density for free atoms.

  Species: Be

  List of occupied orbitals and eigenvalues:
    n    l              occ      energy [Ha]    energy [eV]
    1    0           2.0000        -3.913759      -106.4988
    2    0           2.0000        -0.199308        -5.4235


  Species: C

  List of occupied orbitals and eigenvalues:
    n    l              occ      energy [Ha]    energy [eV]
    1    0           2.0000       -10.061602      -273.7901
    2    0           2.0000        -0.499120       -13.5817
    2    1           2.0000        -0.191941        -5.2230


  Adding cutoff potential to free-atom effective potential.
  Creating fixed part of basis set: Ionic, confined, hydrogenic.

  Be                   ion:

  List of free ionic orbitals and eigenvalues:
    n    l      energy [Ha]    energy [eV]
    1    0        -4.342042      -118.1530
    2    0        -0.501123       -13.6362


  List of ionic basis orbitals and eigenvalues:
    n    l      energy [Ha]    energy [eV]    outer radius [A]
    2    1        -0.358875        -9.7655       5.412664


  Be                   hydrogenic:

  List of hydrogenic basis orbitals: 
    n    l      effective z      eigenvalue [eV]  inner max. [A]     outer max. [A]     outer radius [A]   
    3    0         2.900000       -12.5649           0.134902           2.357125           5.479240
    3    2         3.500000       -18.5140           1.359774           1.359774           5.412664
    3    1         3.100000       -14.4728           0.511360           2.035502           5.479240
    4    2         4.700000       -18.6841           0.765477           2.386117           5.479240
    3    1         2.400000        -8.3476           0.661030           2.567717           5.479240
    4    3         7.600000       -49.1165           1.118198           1.118198           5.217751
    2    0         2.900000       -28.6059           0.139942           0.953891           5.281929


  C                    hydrogenic:

  List of hydrogenic basis orbitals: 
    n    l      effective z      eigenvalue [eV]  inner max. [A]     outer max. [A]     outer radius [A]   
    2    1         1.700000        -9.8152           1.245706           1.245706           5.401630
    3    2         6.000000       -54.4228           0.792453           0.792453           5.081344
    2    0         4.900000       -81.6682           0.082559           0.562749           4.496620
    4    3         9.800000       -81.6682           0.863254           0.863254           4.958612
    3    1         5.200000       -40.8775           0.305389           1.215618           5.271162
    3    0         4.300000       -27.9508           0.091041           1.610311           5.401630
    5    4        14.400000      -112.8511           0.917666           0.917666           4.780049
    3    2         6.200000       -58.1114           0.763917           0.763917           5.019603

  Creating atomic-like basis functions for current effective potential.

  Species Be                  :

  List of atomic basis orbitals and eigenvalues:
    n    l      energy [Ha]    energy [eV]    outer radius [A]
    1    0        -3.913759      -106.4988       3.047029
    2    0        -0.199308        -5.4235       5.412664


  Species C                   :

  List of atomic basis orbitals and eigenvalues:
    n    l      energy [Ha]    energy [eV]    outer radius [A]
    1    0       -10.061602      -273.7901       1.934409
    2    0        -0.499120       -13.5817       5.271162
    2    1        -0.191941        -5.2230       5.401630

  Assembling full basis from fixed parts.
  | Species Be :   atomic orbital   1 s accepted.
  | Species Be :   atomic orbital   2 s accepted.
  | Species Be :    hydro orbital   3 s accepted.
  | Species Be :    hydro orbital   2 s accepted.
  | Species Be :    ionic orbital   2 p accepted.
  | Species Be :    hydro orbital   3 p accepted.
  | Species Be :    hydro orbital   3 p accepted.
  | Species Be :    hydro orbital   3 d accepted.
  | Species Be :    hydro orbital   4 d accepted.
  | Species Be :    hydro orbital   4 f accepted.
  | Species C :   atomic orbital   1 s accepted.
  | Species C :   atomic orbital   2 s accepted.
  | Species C :    hydro orbital   2 s accepted.
  | Species C :    hydro orbital   3 s accepted.
  | Species C :   atomic orbital   2 p accepted.
  | Species C :    hydro orbital   2 p accepted.
  | Species C :    hydro orbital   3 p accepted.
  | Species C :    hydro orbital   3 d accepted.
  | Species C :    hydro orbital   3 d accepted.
  | Species C :    hydro orbital   4 f accepted.
  | Species C :    hydro orbital   5 g accepted.

  Basis size parameters after reduction:
  | Total number of radial functions:       21
  | Total number of basis functions :      810

  Per-task memory consumption for arrays in subroutine allocate_ext:
  |           5.168260MB.
  Testing on-site integration grid accuracy.
  |  Species  Function  <phi|h_atom|phi> (log., in eV)  <phi|h_atom|phi> (rad., in eV)
           1        1               -106.4988007835               -106.4988004706
           1        2                 -5.4253896377                 -5.4250830731
           1        3                  3.7879318795                  3.7932971226
           1        4                190.8297217689                190.8374109627
           1        5                 -1.4281224223                 -1.4279635304
           1        6                  8.2393484974                  8.2416398338
           1        7                 15.5388481167                 15.5660332986
           1        8                  9.0963392864                  9.0966073065
           1        9                 19.6660387642                 19.6703030144
           1       10                 36.0251055973                 36.0251066559
           2       11               -273.7901162246               -273.7901146924
           2       12                -13.5817559997                -13.5817553622
           2       13                 20.0023939548                 20.0023916192
           2       14                 54.7306880001                 54.7309620180
           2       15                 -5.2234714394                 -5.2234340975
           2       16                  8.0814513471                  8.0820487935
           2       17                 27.7925645254                 27.7941944348
           2       18                 27.6538029833                 27.6538029911
           2       19                 56.7502426495                 56.7502426933
           2       20                 59.5914834001                 59.5914834014
           2       21                 93.7020651260                 93.7020651047

  Preparing densities etc. for the partition functions (integrals / Hartree potential).

  Preparations completed.
  max(cpu_time)          :      0.212 s.
  Wall clock time (cpu1) :      0.213 s.
------------------------------------------------------------

------------------------------------------------------------
          Begin self-consistency loop: Initialization.

          Date     :  20220322, Time     :  182448.037
------------------------------------------------------------

  Initializing index lists of integration centers etc. from given atomic structure:
  Mapping all atomic coordinates to central unit cell.

  Initializing the k-points
  Using symmetry for reducing the k-points
  | k-points reduced from:      500 to      251
  | Number of k-points                             :       251
  The eigenvectors in the calculations are COMPLEX.
  | K-points in task   0:         1
  | K-points in task   1:         2
  | K-points in task   2:         2
  | K-points in task   3:         2
  | K-points in task   4:         2
  | K-points in task   5:         2
  | K-points in task   6:         2
  | K-points in task   7:         2
  | K-points in task   8:         2
  | K-points in task   9:         2
  | K-points in task  10:         2
  | K-points in task  11:         2
  | K-points in task  12:         2
  | K-points in task  13:         2
  | K-points in task  14:         2
  | K-points in task  15:         2
  | K-points in task  16:         2
  | K-points in task  17:         2
  | K-points in task  18:         2
  | K-points in task  19:         2
  | K-points in task  20:         2
  | K-points in task  21:         2
  | K-points in task  22:         2
  | K-points in task  23:         2
  | K-points in task  24:         2
  | K-points in task  25:         2
  | K-points in task  26:         2
  | K-points in task  27:         2
  | K-points in task  28:         2
  | K-points in task  29:         2
  | K-points in task  30:         2
  | K-points in task  31:         2
  | K-points in task  32:         2
  | K-points in task  33:         2
  | K-points in task  34:         2
  | K-points in task  35:         2
  | K-points in task  36:         2
  | K-points in task  37:         2
  | K-points in task  38:         2
  | K-points in task  39:         2
  | K-points in task  40:         2
  | K-points in task  41:         2
  | K-points in task  42:         2
  | K-points in task  43:         2
  | K-points in task  44:         2
  | K-points in task  45:         2
  | K-points in task  46:         2
  | K-points in task  47:         2
  | K-points in task  48:         2
  | K-points in task  49:         2
  | K-points in task  50:         2
  | K-points in task  51:         2
  | K-points in task  52:         2
  | K-points in task  53:         2
  | K-points in task  54:         2
  | K-points in task  55:         2
  | K-points in task  56:         2
  | K-points in task  57:         2
  | K-points in task  58:         2
  | K-points in task  59:         2
  | K-points in task  60:         2
  | K-points in task  61:         2
  | K-points in task  62:         2
  | K-points in task  63:         2
  | K-points in task  64:         2
  | K-points in task  65:         2
  | K-points in task  66:         2
  | K-points in task  67:         2
  | K-points in task  68:         2
  | K-points in task  69:         2
  | K-points in task  70:         2
  | K-points in task  71:         2
  | K-points in task  72:         2
  | K-points in task  73:         2
  | K-points in task  74:         2
  | K-points in task  75:         2
  | K-points in task  76:         2
  | K-points in task  77:         2
  | K-points in task  78:         2
  | K-points in task  79:         2
  | K-points in task  80:         2
  | K-points in task  81:         2
  | K-points in task  82:         2
  | K-points in task  83:         2
  | K-points in task  84:         2
  | K-points in task  85:         2
  | K-points in task  86:         2
  | K-points in task  87:         2
  | K-points in task  88:         2
  | K-points in task  89:         2
  | K-points in task  90:         2
  | K-points in task  91:         2
  | K-points in task  92:         2
  | K-points in task  93:         2
  | K-points in task  94:         2
  | K-points in task  95:         2
  | K-points in task  96:         2
  | K-points in task  97:         2
  | K-points in task  98:         2
  | K-points in task  99:         2
  | K-points in task 100:         2
  | K-points in task 101:         2
  | K-points in task 102:         2
  | K-points in task 103:         2
  | K-points in task 104:         2
  | K-points in task 105:         2
  | K-points in task 106:         2
  | K-points in task 107:         2
  | K-points in task 108:         2
  | K-points in task 109:         2
  | K-points in task 110:         2
  | K-points in task 111:         2
  | K-points in task 112:         2
  | K-points in task 113:         2
  | K-points in task 114:         2
  | K-points in task 115:         2
  | K-points in task 116:         2
  | K-points in task 117:         2
  | K-points in task 118:         2
  | K-points in task 119:         2
  | K-points in task 120:         2
  | K-points in task 121:         2
  | K-points in task 122:         2
  | K-points in task 123:         2
  | K-points in task 124:         1
  | K-points in task 125:         1
  | K-points in task 126:         1
  | K-points in task 127:         1
  | Number of basis functions in the Hamiltonian integrals :     15797
  | Number of basis functions in a single unit cell        :       810
  | Number of centers in hartree potential         :      1515
  | Number of centers in hartree multipole         :       876
  | Number of centers in electron density summation:       781
  | Number of centers in basis integrals           :       795
  | Number of centers in integrals                 :       446
  | Number of centers in hamiltonian               :       781
  | Consuming        368 KiB for k_phase.
  | Number of super-cells (origin) [n_cells]                     :         425
  | Number of super-cells (after PM_index) [n_cells]             :          94
  | Number of super-cells in hamiltonian [n_cells_in_hamiltonian]:          94
  | Size of matrix packed + index [n_hamiltonian_matrix_size] :     2511773
  | Estimated reciprocal-space cutoff momentum G_max:         1.96293955 bohr^-1 .
  | Reciprocal lattice points for long-range Hartree potential:     792
  Partitioning the integration grid into batches with parallel hashing+maxmin method.
  | Number of batches:     4564
  | Maximal batch size:     200
  | Minimal batch size:       3
  | Average batch size:     115.071
  | Standard deviation of batch sizes:      34.046

  Integration load balanced across   128 MPI tasks.
  Work distribution over tasks is as follows:
  Task     0 has       4132 integration points.
  Task     1 has       4071 integration points.
  Task     2 has       4126 integration points.
  Task     3 has       4125 integration points.
  Task     4 has       4083 integration points.
  Task     5 has       4123 integration points.
  Task     6 has       4119 integration points.
  Task     7 has       4130 integration points.
  Task     8 has       4142 integration points.
  Task     9 has       4150 integration points.
  Task    10 has       4121 integration points.
  Task    11 has       4066 integration points.
  Task    12 has       4122 integration points.
  Task    13 has       4124 integration points.
  Task    14 has       4129 integration points.
  Task    15 has       4126 integration points.
  Task    16 has       4112 integration points.
  Task    17 has       4067 integration points.
  Task    18 has       4135 integration points.
  Task    19 has       4046 integration points.
  Task    20 has       4130 integration points.
  Task    21 has       4079 integration points.
  Task    22 has       4047 integration points.
  Task    23 has       4122 integration points.
  Task    24 has       4070 integration points.
  Task    25 has       4148 integration points.
  Task    26 has       4122 integration points.
  Task    27 has       4050 integration points.
  Task    28 has       4072 integration points.
  Task    29 has       4066 integration points.
  Task    30 has       4048 integration points.
  Task    31 has       4049 integration points.
  Task    32 has       4049 integration points.
  Task    33 has       4045 integration points.
  Task    34 has       4047 integration points.
  Task    35 has       4066 integration points.
  Task    36 has       4111 integration points.
  Task    37 has       4065 integration points.
  Task    38 has       4068 integration points.
  Task    39 has       4052 integration points.
  Task    40 has       4128 integration points.
  Task    41 has       4146 integration points.
  Task    42 has       4120 integration points.
  Task    43 has       4149 integration points.
  Task    44 has       4048 integration points.
  Task    45 has       4081 integration points.
  Task    46 has       4133 integration points.
  Task    47 has       4121 integration points.
  Task    48 has       4045 integration points.
  Task    49 has       4131 integration points.
  Task    50 has       4118 integration points.
  Task    51 has       4125 integration points.
  Task    52 has       4125 integration points.
  Task    53 has       4049 integration points.
  Task    54 has       4084 integration points.
  Task    55 has       4151 integration points.
  Task    56 has       4049 integration points.
  Task    57 has       4045 integration points.
  Task    58 has       4145 integration points.
  Task    59 has       4130 integration points.
  Task    60 has       4129 integration points.
  Task    61 has       4124 integration points.
  Task    62 has       4122 integration points.
  Task    63 has       4124 integration points.
  Task    64 has       4047 integration points.
  Task    65 has       4128 integration points.
  Task    66 has       4132 integration points.
  Task    67 has       4133 integration points.
  Task    68 has       4126 integration points.
  Task    69 has       4117 integration points.
  Task    70 has       4083 integration points.
  Task    71 has       4127 integration points.
  Task    72 has       4133 integration points.
  Task    73 has       4127 integration points.
  Task    74 has       4129 integration points.
  Task    75 has       4077 integration points.
  Task    76 has       4086 integration points.
  Task    77 has       4136 integration points.
  Task    78 has       4129 integration points.
  Task    79 has       4067 integration points.
  Task    80 has       4138 integration points.
  Task    81 has       4046 integration points.
  Task    82 has       4114 integration points.
  Task    83 has       4133 integration points.
  Task    84 has       4129 integration points.
  Task    85 has       4138 integration points.
  Task    86 has       4123 integration points.
  Task    87 has       4071 integration points.
  Task    88 has       4122 integration points.
  Task    89 has       4047 integration points.
  Task    90 has       4119 integration points.
  Task    91 has       4126 integration points.
  Task    92 has       4122 integration points.
  Task    93 has       4145 integration points.
  Task    94 has       4129 integration points.
  Task    95 has       4064 integration points.
  Task    96 has       4047 integration points.
  Task    97 has       4073 integration points.
  Task    98 has       4050 integration points.
  Task    99 has       4132 integration points.
  Task   100 has       4087 integration points.
  Task   101 has       4128 integration points.
  Task   102 has       4145 integration points.
  Task   103 has       4126 integration points.
  Task   104 has       4052 integration points.
  Task   105 has       4069 integration points.
  Task   106 has       4090 integration points.
  Task   107 has       4151 integration points.
  Task   108 has       4148 integration points.
  Task   109 has       4045 integration points.
  Task   110 has       4147 integration points.
  Task   111 has       4150 integration points.
  Task   112 has       4109 integration points.
  Task   113 has       4135 integration points.
  Task   114 has       4080 integration points.
  Task   115 has       4067 integration points.
  Task   116 has       4115 integration points.
  Task   117 has       4148 integration points.
  Task   118 has       4062 integration points.
  Task   119 has       4069 integration points.
  Task   120 has       4115 integration points.
  Task   121 has       4048 integration points.
  Task   122 has       4152 integration points.
  Task   123 has       4149 integration points.
  Task   124 has       4066 integration points.
  Task   125 has       4069 integration points.
  Task   126 has       4111 integration points.
  Task   127 has       4131 integration points.
  Initializing partition tables, free-atom densities, potentials, etc. across the integration grid (initialize_grid_storage).
  | initialize_grid_storage: Actual outermost partition radius vs. multipole_radius_free
  | (-- VB: in principle, multipole_radius_free should be larger, hence this output)
  | Species        1: Confinement radius =              6.000000000000000 AA, multipole_radius_free =              6.042188081213826 AA.
  | Species        1: outer_partition_radius set to              6.042188081213826 AA .
  | Species        2: Confinement radius =              6.000000000000000 AA, multipole_radius_free =              6.029870734432609 AA.
  | Species        2: outer_partition_radius set to              6.029870734432609 AA .
  | The sparse table of interatomic distances needs       2413.46 kbyte instead of      5056.20 kbyte of memory.
  | Net number of integration points:   525186
  | of which are non-zero points    :   395115
  | Numerical average free-atom electrostatic potential    :     -3.02439955 eV
  Renormalizing the initial density to the exact electron count on the 3D integration grid.
  | Initial density: Formal number of electrons (from input files) :     124.0000000000
  | Integrated number of electrons on 3D grid     :     123.9999086163
  | Charge integration error                      :      -0.0000913837
  | Normalization factor for density and gradient :       1.0000007370
  Renormalizing the free-atom superposition density to the exact electron count on the 3D integration grid.
  | Formal number of electrons (from input files) :     124.0000000000
  | Integrated number of electrons on 3D grid     :     123.9999086163
  | Charge integration error                      :      -0.0000913837
  | Normalization factor for density and gradient :       1.0000007370
  Obtaining max. number of non-zero basis functions in each batch (get_n_compute_maxes).
  | Maximal number of non-zero basis functions:     2822 in task     0
  | Maximal number of non-zero basis functions:     2823 in task     1
  | Maximal number of non-zero basis functions:     2786 in task     2
  | Maximal number of non-zero basis functions:     2780 in task     3
  | Maximal number of non-zero basis functions:     2808 in task     4
  | Maximal number of non-zero basis functions:     2800 in task     5
  | Maximal number of non-zero basis functions:     2817 in task     6
  | Maximal number of non-zero basis functions:     2815 in task     7
  | Maximal number of non-zero basis functions:     2861 in task     8
  | Maximal number of non-zero basis functions:     2754 in task     9
  | Maximal number of non-zero basis functions:     2814 in task    10
  | Maximal number of non-zero basis functions:     2844 in task    11
  | Maximal number of non-zero basis functions:     2826 in task    12
  | Maximal number of non-zero basis functions:     2791 in task    13
  | Maximal number of non-zero basis functions:     2784 in task    14
  | Maximal number of non-zero basis functions:     2791 in task    15
  | Maximal number of non-zero basis functions:     2792 in task    16
  | Maximal number of non-zero basis functions:     2804 in task    17
  | Maximal number of non-zero basis functions:     2826 in task    18
  | Maximal number of non-zero basis functions:     2814 in task    19
  | Maximal number of non-zero basis functions:     2786 in task    20
  | Maximal number of non-zero basis functions:     2726 in task    21
  | Maximal number of non-zero basis functions:     2798 in task    22
  | Maximal number of non-zero basis functions:     2796 in task    23
  | Maximal number of non-zero basis functions:     2803 in task    24
  | Maximal number of non-zero basis functions:     2754 in task    25
  | Maximal number of non-zero basis functions:     2826 in task    26
  | Maximal number of non-zero basis functions:     2826 in task    27
  | Maximal number of non-zero basis functions:     2799 in task    28
  | Maximal number of non-zero basis functions:     2813 in task    29
  | Maximal number of non-zero basis functions:     2801 in task    30
  | Maximal number of non-zero basis functions:     2796 in task    31
  | Maximal number of non-zero basis functions:     2821 in task    32
  | Maximal number of non-zero basis functions:     2814 in task    33
  | Maximal number of non-zero basis functions:     2833 in task    34
  | Maximal number of non-zero basis functions:     2788 in task    35
  | Maximal number of non-zero basis functions:     2804 in task    36
  | Maximal number of non-zero basis functions:     2790 in task    37
  | Maximal number of non-zero basis functions:     2817 in task    38
  | Maximal number of non-zero basis functions:     2789 in task    39
  | Maximal number of non-zero basis functions:     2779 in task    40
  | Maximal number of non-zero basis functions:     2779 in task    41
  | Maximal number of non-zero basis functions:     2814 in task    42
  | Maximal number of non-zero basis functions:     2802 in task    43
  | Maximal number of non-zero basis functions:     2797 in task    44
  | Maximal number of non-zero basis functions:     2763 in task    45
  | Maximal number of non-zero basis functions:     2820 in task    46
  | Maximal number of non-zero basis functions:     2821 in task    47
  | Maximal number of non-zero basis functions:     2793 in task    48
  | Maximal number of non-zero basis functions:     2816 in task    49
  | Maximal number of non-zero basis functions:     2773 in task    50
  | Maximal number of non-zero basis functions:     2771 in task    51
  | Maximal number of non-zero basis functions:     2805 in task    52
  | Maximal number of non-zero basis functions:     2751 in task    53
  | Maximal number of non-zero basis functions:     2802 in task    54
  | Maximal number of non-zero basis functions:     2812 in task    55
  | Maximal number of non-zero basis functions:     2767 in task    56
  | Maximal number of non-zero basis functions:     2804 in task    57
  | Maximal number of non-zero basis functions:     2775 in task    58
  | Maximal number of non-zero basis functions:     2825 in task    59
  | Maximal number of non-zero basis functions:     2813 in task    60
  | Maximal number of non-zero basis functions:     2841 in task    61
  | Maximal number of non-zero basis functions:     2788 in task    62
  | Maximal number of non-zero basis functions:     2731 in task    63
  | Maximal number of non-zero basis functions:     2813 in task    64
  | Maximal number of non-zero basis functions:     2785 in task    65
  | Maximal number of non-zero basis functions:     2796 in task    66
  | Maximal number of non-zero basis functions:     2799 in task    67
  | Maximal number of non-zero basis functions:     2808 in task    68
  | Maximal number of non-zero basis functions:     2666 in task    69
  | Maximal number of non-zero basis functions:     2799 in task    70
  | Maximal number of non-zero basis functions:     2792 in task    71
  | Maximal number of non-zero basis functions:     2802 in task    72
  | Maximal number of non-zero basis functions:     2784 in task    73
  | Maximal number of non-zero basis functions:     2814 in task    74
  | Maximal number of non-zero basis functions:     2798 in task    75
  | Maximal number of non-zero basis functions:     2813 in task    76
  | Maximal number of non-zero basis functions:     2772 in task    77
  | Maximal number of non-zero basis functions:     2859 in task    78
  | Maximal number of non-zero basis functions:     2760 in task    79
  | Maximal number of non-zero basis functions:     2804 in task    80
  | Maximal number of non-zero basis functions:     2778 in task    81
  | Maximal number of non-zero basis functions:     2809 in task    82
  | Maximal number of non-zero basis functions:     2788 in task    83
  | Maximal number of non-zero basis functions:     2816 in task    84
  | Maximal number of non-zero basis functions:     2771 in task    85
  | Maximal number of non-zero basis functions:     2783 in task    86
  | Maximal number of non-zero basis functions:     2805 in task    87
  | Maximal number of non-zero basis functions:     2806 in task    88
  | Maximal number of non-zero basis functions:     2718 in task    89
  | Maximal number of non-zero basis functions:     2813 in task    90
  | Maximal number of non-zero basis functions:     2825 in task    91
  | Maximal number of non-zero basis functions:     2795 in task    92
  | Maximal number of non-zero basis functions:     2771 in task    93
  | Maximal number of non-zero basis functions:     2781 in task    94
  | Maximal number of non-zero basis functions:     2776 in task    95
  | Maximal number of non-zero basis functions:     2832 in task    96
  | Maximal number of non-zero basis functions:     2814 in task    97
  | Maximal number of non-zero basis functions:     2819 in task    98
  | Maximal number of non-zero basis functions:     2769 in task    99
  | Maximal number of non-zero basis functions:     2779 in task   100
  | Maximal number of non-zero basis functions:     2703 in task   101
  | Maximal number of non-zero basis functions:     2740 in task   102
  | Maximal number of non-zero basis functions:     2811 in task   103
  | Maximal number of non-zero basis functions:     2795 in task   104
  | Maximal number of non-zero basis functions:     2802 in task   105
  | Maximal number of non-zero basis functions:     2809 in task   106
  | Maximal number of non-zero basis functions:     2796 in task   107
  | Maximal number of non-zero basis functions:     2813 in task   108
  | Maximal number of non-zero basis functions:     2810 in task   109
  | Maximal number of non-zero basis functions:     2822 in task   110
  | Maximal number of non-zero basis functions:     2778 in task   111
  | Maximal number of non-zero basis functions:     2801 in task   112
  | Maximal number of non-zero basis functions:     2662 in task   113
  | Maximal number of non-zero basis functions:     2766 in task   114
  | Maximal number of non-zero basis functions:     2792 in task   115
  | Maximal number of non-zero basis functions:     2823 in task   116
  | Maximal number of non-zero basis functions:     2795 in task   117
  | Maximal number of non-zero basis functions:     2803 in task   118
  | Maximal number of non-zero basis functions:     2787 in task   119
  | Maximal number of non-zero basis functions:     2813 in task   120
  | Maximal number of non-zero basis functions:     2809 in task   121
  | Maximal number of non-zero basis functions:     2792 in task   122
  | Maximal number of non-zero basis functions:     2816 in task   123
  | Maximal number of non-zero basis functions:     2803 in task   124
  | Maximal number of non-zero basis functions:     2789 in task   125
  | Maximal number of non-zero basis functions:     2811 in task   126
  | Maximal number of non-zero basis functions:     2763 in task   127
  Allocating        1.533 MB for KS_eigenvector_complex
  Integrating Hamiltonian matrix: batch-based integration.
  Time summed over all CPUs for integration: real work      318.886 s, elapsed      346.742 s
  Integrating overlap matrix.
  Time summed over all CPUs for integration: real work      238.555 s, elapsed      261.180 s
  Decreasing sparse matrix size:
  | Tolerance:  0.1000E-12
  Hamiltonian matrix
  | Array has  2307553 nonzero elements out of  2511773 elements
  | Sparsity factor is 0.081
  Overlap matrix
  | Array has  2225456 nonzero elements out of  2511773 elements
  | Sparsity factor is 0.114
  New size of hamiltonian matrix:     2307723

  Updating Kohn-Sham eigenvalues and eigenvectors using ELSI and the (modified) LAPACK eigensolver.
  Singularity check in k-point 128, task 0 (analysis for other k-points/tasks may follow below):
  Overlap matrix is not singular
  | Lowest and highest eigenvalues :  0.4414E-04,  0.1163E+02
  Finished singularity check of overlap matrix
  | Time :     0.461 s
  Starting LAPACK eigensolver
  Finished Cholesky decomposition
  | Time :     0.060 s
  Finished transformation to standard eigenproblem
  | Time :     0.101 s
  Finished solving standard eigenproblem
  | Time :     0.368 s
  Finished back-transformation of eigenvectors
  | Time :     0.011 s

  Obtaining occupation numbers and chemical potential using ELSI.
  | Chemical potential (Fermi level):    -7.03761947 eV
  Writing Kohn-Sham eigenvalues.
[...]
     22       2.00000          -0.888168          -24.16827
     23       2.00000          -0.879277          -23.92634
     24       2.00000          -0.878047          -23.89287
     25       2.00000          -0.851122          -23.16021
     26       2.00000          -0.850591          -23.14575
     27       2.00000          -0.806888          -21.95653
     28       2.00000          -0.806179          -21.93725
     29       2.00000          -0.748947          -20.37989
     30       2.00000          -0.748483          -20.36727
     31       2.00000          -0.697976          -18.99289
     32       2.00000          -0.646313          -17.58706
     33       2.00000          -0.586127          -15.94934
     34       2.00000          -0.585407          -15.92973
     35       2.00000          -0.500532          -13.62018
     36       2.00000          -0.500228          -13.61191
     37       2.00000          -0.459704          -12.50917
     38       2.00000          -0.447525          -12.17776
     39       2.00000          -0.446613          -12.15295
     40       2.00000          -0.432558          -11.77049
     41       2.00000          -0.431570          -11.74363
     42       2.00000          -0.400832          -10.90720
     43       2.00000          -0.393197          -10.69944
     44       2.00000          -0.391659          -10.65758
     45       2.00000          -0.379736          -10.33315
     46       2.00000          -0.379274          -10.32057
     47       2.00000          -0.368998          -10.04095
     48       2.00000          -0.368007          -10.01398
     49       2.00000          -0.348369           -9.47960
     50       2.00000          -0.347115           -9.44548
     51       2.00000          -0.334287           -9.09642
     52       2.00000          -0.332911           -9.05897
     53       2.00000          -0.323456           -8.80167
     54       2.00000          -0.323280           -8.79690
     55       2.00000          -0.298636           -8.12631
     56       2.00000          -0.298232           -8.11531
     57       2.00000          -0.294881           -8.02413
     58       2.00000          -0.286253           -7.78935
     59       2.00000          -0.285652           -7.77299
     60       2.00000          -0.282359           -7.68338
     61       2.00000          -0.276118           -7.51356
     62       2.00000          -0.244645           -6.65712
     63       0.01530          -0.118529           -3.22534
     64       0.01340          -0.117684           -3.20235
     65       0.00507          -0.111863           -3.04395
     66       0.00000          -0.064172           -1.74620
     67       0.00000          -0.064006           -1.74170
     68       0.00000           0.012132            0.33014
     69       0.00000           0.013457            0.36619
     70       0.00000           0.018802            0.51163
     71       0.00000           0.027859            0.75809
     72       0.00000           0.028103            0.76472
     73       0.00000           0.036094            0.98217
     74       0.00000           0.036203            0.98513
     75       0.00000           0.047014            1.27931
     76       0.00000           0.061333            1.66896
     77       0.00000           0.062111            1.69012
     78       0.00000           0.063151            1.71843
     79       0.00000           0.065274            1.77620
     80       0.00000           0.072457            1.97167
     81       0.00000           0.072591            1.97529
     82       0.00000           0.102743            2.79578
     83       0.00000           0.102937            2.80106
     84       0.00000           0.114278            3.10966
     85       0.00000           0.128186            3.48812
     86       0.00000           0.128683            3.50164
     87       0.00000           0.141764            3.85760
     88       0.00000           0.142883            3.88804
     89       0.00000           0.143348            3.90071
     90       0.00000           0.143562            3.90652
     91       0.00000           0.167290            4.55219
     92       0.00000           0.169982            4.62546
     93       0.00000           0.170544            4.64075
     94       0.00000           0.176323            4.79799
     95       0.00000           0.176706            4.80841
     96       0.00000           0.176763            4.80996
     97       0.00000           0.177330            4.82540
     98       0.00000           0.184905            5.03153
     99       0.00000           0.199618            5.43188
    100       0.00000           0.199975            5.44161
    101       0.00000           0.210670            5.73263
    102       0.00000           0.211038            5.74265
    103       0.00000           0.211602            5.75799
    104       0.00000           0.259970            7.07414
    105       0.00000           0.261344            7.11154
    106       0.00000           0.279795            7.61361
    107       0.00000           0.281775            7.66748
    108       0.00000           0.282163            7.67804
    109       0.00000           0.284098            7.73070
    110       0.00000           0.287583            7.82554
    111       0.00000           0.358238            9.74816
    112       0.00000           0.358751            9.76212
    113       0.00000           0.369411           10.05218
    114       0.00000           0.370771           10.08919
    115       0.00000           0.371603           10.11184
    116       0.00000           0.372340           10.13189
    117       0.00000           0.374946           10.20280
    118       0.00000           0.376715           10.25095
    119       0.00000           0.384602           10.46555
    120       0.00000           0.386301           10.51178
    121       0.00000           0.389139           10.58900
    122       0.00000           0.425548           11.57975
    123       0.00000           0.426258           11.59908
    124       0.00000           0.465299           12.66142

  What follows are estimated values for band gap, HOMO, LUMO, etc.
  | They are estimated on a discrete k-point grid and not necessarily exact.
  | For converged numbers, create a DOS and/or band structure plot on a denser k-grid.

  Highest occupied state (VBM) at     -4.40877242 eV (relative to internal zero)
  | Occupation number:      1.02879753
  | K-point:     126 at    0.000000    0.000000    0.334000 (in units of recip. lattice)

  Lowest unoccupied state (CBM) at    -4.38898258 eV (relative to internal zero)
  | Occupation number:      0.99596491
  | K-point:     119 at    0.000000    0.000000    0.314000 (in units of recip. lattice)

  ESTIMATED overall HOMO-LUMO gap:      0.01978984 eV between HOMO at k-point 126 and LUMO at k-point 119
  | This appears to be an indirect band gap.
  | Smallest direct gap :      0.27355146 eV for k_point 119 at    0.000000    0.000000    0.314000 (in units of recip. lattice)
  However, this system has fractional occupation numbers. Since we use a finite k-point grid,
  this material is metallic within the approximate finite broadening function (occupation_type)
  applied to determine the occupation numbers.
  | Chemical Potential                          :    -4.39141428 eV

  Self-consistency cycle converged.


------------------------------------------------------------
  End self-consistency iteration #    29       :  max(cpu_time)    wall_clock(cpu1)
  | Time for this iteration                    :       56.086 s          56.444 s
  | Charge density & force component update    :       46.391 s          46.697 s
  | Density mixing                             :        0.003 s           0.003 s
  | Hartree multipole update                   :        0.012 s           0.012 s
  | Hartree multipole summation                :        3.063 s           3.074 s
  | Hartree pot. SCF incomplete forces         :        2.295 s           2.305 s
  | Integration                                :        2.868 s           2.889 s
  | Solution of K.-S. eqns.                    :        1.452 s           1.461 s
  | Total energy evaluation                    :        0.001 s           0.000 s

  Partial memory accounting:
  | Current value for overall tracked memory usage:
  |   Minimum:       45.553 MB (on task   0)
  |   Maximum:       47.085 MB (on task   1)
  |   Average:       47.025 MB
  | Peak value for overall tracked memory usage:
  |   Minimum:      182.387 MB (on task 113 after allocating d_wave)
  |   Maximum:      196.845 MB (on task   8 after allocating d_wave)
  |   Average:      191.947 MB
  | Largest tracked array allocation so far:
  |   Minimum:       54.064 MB (hamiltonian_shell on task 113)
  |   Maximum:       62.449 MB (hamiltonian_shell on task   8)
  |   Average:       59.618 MB
  Note:  These values currently only include a subset of arrays which are explicitly tracked.
  The "true" memory usage will be greater.
------------------------------------------------------------
  Removing unitary transformations (pure translations, rotations) from forces on atoms.
  Atomic forces before filtering:
  | Net force on center of mass :   0.815410E-04 -0.172732E-04 -0.169480E-04 eV/A
  Atomic forces after filtering:
  | Net force on center of mass :  -0.709095E-16  0.815372E-16 -0.836279E-17 eV/A

  Energy and forces in a compact form:
  | Total energy uncorrected      :         -0.211414748771664E+05 eV
  | Total energy corrected        :         -0.211416011541655E+05 eV  <-- do not rely on this value for anything but (periodic) metals
  | Electronic free energy        :         -0.211417274311646E+05 eV
  Total atomic forces (unitary forces cleaned) [eV/Ang]:
  |    1         -0.206227495345114E-02          0.197265301301347E-02          0.231631884311802E-03
  |    2          0.353043603082835E-01          0.226432670958297E+00          0.137638422624853E-01
  |    3         -0.129508781849989E+00         -0.672208242912944E-01          0.105198264632812E-01
  |    4          0.531151180068232E-01          0.543595450405539E-01         -0.286646363608823E-03
  |    5          0.152230632971104E+00         -0.436853020521242E-01          0.120652298040291E-01
  |    6          0.456610792105709E-01         -0.382686862326804E-02          0.906764685539965E-02
  |    7         -0.515571511024070E-01         -0.237197452524037E+00         -0.185490073418822E-01
  |    8          0.130166450397565E+00          0.622146295896481E-01         -0.205225870695586E-01
  |    9         -0.580843407365051E-01         -0.625820969028213E-01         -0.225789319923519E-02
  |   10         -0.147959577795239E+00          0.299893956520495E-01         -0.297519079351096E-02
  |   11         -0.289590164408486E-01          0.358716533561780E-02          0.125108511772811E-01
  |   12         -0.165442259129300E-01         -0.120079836758463E+00          0.966717003775305E-02
  |   13         -0.814357086172794E-01          0.114003378958258E-01          0.661600189496940E-02
  |   14         -0.147812279215940E+00          0.197443726309541E-01          0.420133936169263E-02
  |   15          0.836976172416273E-01          0.774252711537688E-01         -0.302839603631386E-01
  |   16         -0.161827700074763E-01          0.113955394776046E-01         -0.298148721882124E-01
  |   17          0.396233697504220E-01          0.135670329894383E+00         -0.237221626336934E-02
  |   18          0.862455150016447E-01         -0.685673187720991E-02          0.623693732125467E-03
  |   19          0.134789455887408E+00         -0.141583979884060E-01         -0.440384135271767E-02
  |   20         -0.811696476951186E-01         -0.745696699112718E-01          0.159501464003003E-01
  |   21          0.442175551735631E-03         -0.401472971281980E-02          0.162488350616047E-01

  ------------------------------------ 
  Start decomposition of the XC Energy 
  ------------------------------------ 
  X and C from original XC functional choice 
  Hartree-Fock Energy :          0.000000000 Ha              0.000000000 eV
  X Energy            :       -107.172653320 Ha          -2916.316277368 eV
  C Energy            :         -4.388913278 Ha           -119.428406739 eV
  Total XC Energy     :       -111.561566598 Ha          -3035.744684107 eV
  ------------------------------------ 
  LDA X and C from self-consistent density 
  X Energy LDA        :        -96.681483974 Ha          -2630.837034446 eV
  C Energy LDA        :         -8.193958951 Ha           -222.968967603 eV
  ------------------------------------ 
  End decomposition of the XC Energy 
  ------------------------------------ 

------------------------------------------------------------

------------------------------------------------------------------------------
  Final output of selected total energy values:

  The following output summarizes some interesting total energy values
  at the end of a run (AFTER all relaxation, molecular dynamics, etc.).

  | Total energy of the DFT / Hartree-Fock s.c.f. calculation      :         -21141.474877166 eV
  | Final zero-broadening corrected energy (caution - metals only) :         -21141.601154166 eV
  | For reference only, the value of 1 Hartree used in FHI-aims is :             27.211384500 eV
  | For reference only, the overall average (free atom contribution
  | + realspace contribution) of the electrostatic potential after
  | s.c.f. convergence is                                          :             -2.746934996 eV

  Before relying on these values, please be sure to understand exactly which
  total energy value is referred to by a given number. Different objects may
  all carry the same name 'total energy'. Definitions:

  Total energy of the DFT / Hartree-Fock s.c.f. calculation:
  | Note that this energy does not include ANY quantities calculated after the
  | s.c.f. cycle, in particular not ANY RPA, MP2, etc. many-body perturbation terms.

  Final zero-broadening corrected energy:
  | For metallic systems only, a broadening of the occupation numbers at the Fermi
  | level can be extrapolated back to zero broadening by an electron-gas inspired
  | formula. For all systems that are not real metals, this value can be
  | meaningless and should be avoided.

------------------------------------------------------------------------------
  Methods described in the following list of references were used in this FHI-aims run.
  If you publish the results, please make sure to cite these reference if they apply.
  FHI-aims is an academic code, and for our developers (often, Ph.D. students
  and postdocs), scientific credit in the community is essential.
  Thank you for helping us!

  For any use of FHI-aims, please cite:

    Volker Blum, Ralf Gehrke, Felix Hanke, Paula Havu, Ville Havu,
    Xinguo Ren, Karsten Reuter, and Matthias Scheffler
    'Ab initio molecular simulations with numeric atom-centered orbitals'
    Computer Physics Communications 180, 2175-2196 (2009)
    http://dx.doi.org/10.1016/j.cpc.2009.06.022


  The provided symmetry information was generated with SPGlib:

    Atsushi Togo, Yusuke Seto, Dimitar Pashov
    SPGlib 1.7.3 obtained from http://spglib.sourceforge.net
    Copyright (C) 2008 Atsushi Togo


  The ELSI infrastructure was used in your run to solve the Kohn-Sham electronic structure.
  Please check out http://elsi-interchange.org to learn more.
  If scalability is important for your project, please acknowledge ELSI by citing:

    V. W-z. Yu, F. Corsetti, A. Garcia, W. P. Huhn, M. Jacquelin, W. Jia,
    B. Lange, L. Lin, J. Lu, W. Mi, A. Seifitokaldani, A. Vazquez-Mayagoitia,
    C. Yang, H. Yang, and V. Blum
    'ELSI: A unified software interface for Kohn-Sham electronic structure solvers'
    Computer Physics Communications 222, 267-285 (2018).
    http://dx.doi.org/10.1016/j.cpc.2017.09.007


  For the real-space grid partitioning and parallelization used in this calculation, please cite:

    Ville Havu, Volker Blum, Paula Havu, and Matthias Scheffler,
    'Efficient O(N) integration for all-electron electronic structure calculation'
    'using numerically tabulated basis functions'
    Journal of Computational Physics 228, 8367-8379 (2009).
    http://dx.doi.org/10.1016/j.jcp.2009.08.008


  The high-level electronic structure method used in your calculation
  employed our efficient localized resolution of identity for the Coulomb operator.
  Some calculations, especially large-scale hybrid density functional theory,
  are only possible thanks to this development. For this feature, please cite:

    Arvid Ihrig, Juergen Wieferink, Igor Ying Zhang, Matti Ropo, Xinguo Ren,
    Patrick Rinke, Matthias Scheffler, and Volker Blum,
    'Accurate localized resolution of identity approach for linear-scaling
    hybrid density functionals and for many-body perturbation theory'
    New Journal of Physics 117, 093020 (2015).
    http://dx.doi.org/10.1088/1367-2630/17/9/093020

  Of course, there are many other important community references, e.g., those cited in the
  above references. Our list is limited to references that describe implementations in the
  FHI-aims code. The reason is purely practical (length of this list) - please credit others as well.

------------------------------------------------------------
          Leaving FHI-aims.
          Date     :  20220322, Time     :  183151.739

          Computational steps:
          | Number of self-consistency cycles          :           29
          | Number of SCF (re)initializations          :            1

          Detailed time accounting                     :  max(cpu_time)    wall_clock(cpu1)
          | Total time                                 :      421.522 s         424.096 s
          | Preparation time                           :        0.212 s           0.213 s
          | Boundary condition initalization           :        0.145 s           0.147 s
          | Grid partitioning                          :        0.543 s           0.547 s
          | Preloading free-atom quantities on grid    :        0.349 s           0.353 s
          | Free-atom superposition energy             :        0.032 s           0.032 s
          | Total time for integrations                :       88.171 s          88.835 s
          | Total time for solution of K.-S. equations :       44.729 s          45.017 s
          | Total time for density & force components  :      250.426 s         251.812 s
          | Total time for mixing & preconditioning    :        5.491 s           5.508 s
          | Total time for Hartree multipole update    :        0.350 s           0.353 s
          | Total time for Hartree multipole sum       :       26.103 s          26.205 s
          | Total time for total energy evaluation     :        0.020 s           0.012 s
          | Total time NSC force correction            :        4.594 s           4.613 s

          Partial memory accounting:
          | Residual value for overall tracked memory usage across tasks:     0.000000 MB (should be 0.000000 MB)
          | Peak values for overall tracked memory usage:
          |   Minimum:      182.387 MB (on task 113 after allocating d_wave)
          |   Maximum:      196.845 MB (on task   8 after allocating d_wave)
          |   Average:      191.947 MB
          | Largest tracked array allocation:
          |   Minimum:       54.064 MB (hamiltonian_shell on task 113)
          |   Maximum:       62.449 MB (hamiltonian_shell on task   8)
          |   Average:       59.618 MB
          Note:  These values currently only include a subset of arrays which are explicitly tracked.
          The "true" memory usage will be greater.

          Have a nice day.
------------------------------------------------------------
