21
Lattice="19.1230500920856 -0.786458438781509 -0.00473684487563405 0.785459901084019 18.5034761550599 -0.00461234345356856 -0.00505965426374022 0.00023807418300801 2.44677315902897" Properties=species:S:1:pos:R:3:forces:R:3 energy=-21141.6499234289 free_energy=-21141.5211906647 pbc="F F T"
Be       9.17337987       9.64067763       0.92226429       0.00064249      -0.00020507       0.00073577
C       12.59704359       9.06219836       1.22071447      -0.00002567       0.00041720       0.00007135
C       11.61044991       7.16908155      -0.00268212      -0.00010996      -0.00020869      -0.00033334
C        9.67592936       6.23131177       1.22079654       0.00049147      -0.00007399      -0.00071115
C        7.55659953       6.57863063      -0.00264952       0.00166682      -0.00098093       0.00392203
C        6.04711868       8.10282994       1.22072842       0.00035243      -0.00101677      -0.00466986
C        5.73661707      10.22420932      -0.00254751      -0.00028527      -0.00179546       0.00419927
C        6.72373783      12.11755896       1.22109659      -0.00100183      -0.00084063      -0.00409054
C        8.65689885      13.05729073      -0.00247333      -0.00080332       0.00000727       0.00046125
C       10.77657084      12.70715301       1.22082029      -0.00086226       0.00042849       0.00062776
C       12.28675221      11.18438977      -0.00305336       0.00009642      -0.00001141       0.00043049
C       12.40597451       8.36521853      -0.00283078      -0.00003611      -0.00014997       0.00026615
C       11.03210114       6.72107452       1.22041822       0.00041715       0.00015228       0.00058851
C        8.95070070       6.20217929      -0.00324578      -0.00126799       0.00010535       0.00048682
C        6.94254982       6.97494505       1.22084553      -0.00156105       0.00091328      -0.00403855
C        5.79739107       8.78590342      -0.00253097      -0.00039372       0.00173254       0.00417111
C        5.92827893      10.92059117       1.22090935       0.00052003       0.00148881      -0.00473679
C        7.30075727      12.56731494      -0.00216837       0.00056256       0.00057574       0.00392846
C        9.38237459      13.08361492       1.22153133       0.00111360      -0.00013608      -0.00071745
C       11.39156590      12.31204881      -0.00248262       0.00047709      -0.00006216      -0.00043555
C       12.53595382      10.50080875       1.22056780       0.00000712      -0.00033979      -0.00015574
