------------------------------------------------------------
          Invoking FHI-aims ...

          When using FHI-aims, please cite the following reference:

            Volker Blum, Ralf Gehrke, Felix Hanke, Paula Havu,
            Ville Havu, Xinguo Ren, Karsten Reuter, and Matthias Scheffler,
            'Ab Initio Molecular Simulations with Numeric Atom-Centered Orbitals',
            Computer Physics Communications 180, 2175-2196 (2009)

          In addition, many other developments in FHI-aims are likely important for
          your particular application. A partial list of references is given at the end of
          this file. Thank you for giving credit to the authors of these developments.

          For any questions about FHI-aims, please visit our slack channel at

            https://fhi-aims.slack.com

          and our main development and support site at

            https://aims-git.rz-berlin.mpg.de .

          The latter site, in particular, has a wiki to collect information, as well
          as an issue tracker to log discussions, suggest improvements, and report issues
          or bugs. https://aims-git.rz-berlin.mpg.de is also the main development site
          of the project and all new and updated code versions can be obtained there.
          Please send an email to aims-coordinators@fhi-berlin.mpg.de and we will add
          you to these sites. They are for you and everyone is welcome there.

------------------------------------------------------------



  Date     :  20220323, Time     :  133749.728
  Time zero on CPU 1             :   0.135361600000000E+01  s.
  Internal wall clock time zero  :           417274669.728  s.

  FHI-aims created a unique identifier for this run for later identification
  aims_uuid : BB232BD0-869B-4111-A8C8-6E05DB74A0D2

  Build configuration of the current instance of FHI-aims
  -------------------------------------------------------
  FHI-aims version      : 210716.2
  Commit number         : GITDIR-NOTFOUND
  CMake host system     : Linux-4.18.0-305.12.1.el8_4.x86_64
  CMake version         : 3.21.1
  Fortran compiler      : /sulis/institutions/warwick/easybuild/software/OpenMPI/4.1.1-GCC-11.2.0/bin/mpifort (GNU) version 11.2.0
  Fortran compiler flags: -O3 -march=native -mno-recip -I$(EBROOTHDF5)/include -fallow-argument-mismatch -ffree-line-length-none -O3 -DNDEBUG -O3
  C compiler            : /sulis/institutions/warwick/easybuild/software/GCCcore/11.2.0/bin/gcc (GNU) version 11.2.0
  C compiler flags      : -O3 -march=native -mno-recip -std=gnu99 -O3 -DNDEBUG
  ELPA2 kernel          : AVX2
  Using MPI
  Using ScaLAPACK
  Using LibXC
  Using i-PI
  Using HDF5
  Using RLSY
  Using PLUMED
  Linking against: /sulis/institutions/warwick/easybuild/software/PLUMED/2.7.3-foss-2021b/lib/libplumed.so
                   /sulis/institutions/warwick/easybuild/software/HDF5/1.12.1-gompi-2021b/lib/libhdf5_fortran.so
                   /sulis/institutions/warwick/easybuild/software/ScaLAPACK/2.1.0-gompi-2021b-fb/lib/libscalapack.so
                   /sulis/institutions/warwick/easybuild/software/FlexiBLAS/3.0.4-GCC-11.2.0/lib/libflexiblas.so

  Using      128 parallel tasks.
  Task        0 on host node019.sulis.hpc reporting.
  Task        1 on host node019.sulis.hpc reporting.
  Task        2 on host node019.sulis.hpc reporting.
  Task        3 on host node019.sulis.hpc reporting.
  Task        4 on host node019.sulis.hpc reporting.
  Task        5 on host node019.sulis.hpc reporting.
  Task        6 on host node019.sulis.hpc reporting.
  Task        7 on host node019.sulis.hpc reporting.
  Task        8 on host node019.sulis.hpc reporting.
  Task        9 on host node019.sulis.hpc reporting.
  Task       10 on host node019.sulis.hpc reporting.
  Task       11 on host node019.sulis.hpc reporting.
  Task       12 on host node019.sulis.hpc reporting.
  Task       13 on host node019.sulis.hpc reporting.
  Task       14 on host node019.sulis.hpc reporting.
  Task       15 on host node019.sulis.hpc reporting.
  Task       16 on host node019.sulis.hpc reporting.
  Task       17 on host node019.sulis.hpc reporting.
  Task       18 on host node019.sulis.hpc reporting.
  Task       19 on host node019.sulis.hpc reporting.
  Task       20 on host node019.sulis.hpc reporting.
  Task       21 on host node019.sulis.hpc reporting.
  Task       22 on host node019.sulis.hpc reporting.
  Task       23 on host node019.sulis.hpc reporting.
  Task       24 on host node019.sulis.hpc reporting.
  Task       25 on host node019.sulis.hpc reporting.
  Task       26 on host node019.sulis.hpc reporting.
  Task       27 on host node019.sulis.hpc reporting.
  Task       28 on host node019.sulis.hpc reporting.
  Task       29 on host node019.sulis.hpc reporting.
  Task       30 on host node019.sulis.hpc reporting.
  Task       31 on host node019.sulis.hpc reporting.
  Task       32 on host node019.sulis.hpc reporting.
  Task       33 on host node019.sulis.hpc reporting.
  Task       34 on host node019.sulis.hpc reporting.
  Task       35 on host node019.sulis.hpc reporting.
  Task       36 on host node019.sulis.hpc reporting.
  Task       37 on host node019.sulis.hpc reporting.
  Task       38 on host node019.sulis.hpc reporting.
  Task       39 on host node019.sulis.hpc reporting.
  Task       40 on host node019.sulis.hpc reporting.
  Task       41 on host node019.sulis.hpc reporting.
  Task       42 on host node019.sulis.hpc reporting.
  Task       43 on host node019.sulis.hpc reporting.
  Task       44 on host node019.sulis.hpc reporting.
  Task       45 on host node019.sulis.hpc reporting.
  Task       46 on host node019.sulis.hpc reporting.
  Task       47 on host node019.sulis.hpc reporting.
  Task       48 on host node019.sulis.hpc reporting.
  Task       49 on host node019.sulis.hpc reporting.
  Task       50 on host node019.sulis.hpc reporting.
  Task       51 on host node019.sulis.hpc reporting.
  Task       52 on host node019.sulis.hpc reporting.
  Task       53 on host node019.sulis.hpc reporting.
  Task       54 on host node019.sulis.hpc reporting.
  Task       55 on host node019.sulis.hpc reporting.
  Task       56 on host node019.sulis.hpc reporting.
  Task       57 on host node019.sulis.hpc reporting.
  Task       58 on host node019.sulis.hpc reporting.
  Task       59 on host node019.sulis.hpc reporting.
  Task       60 on host node019.sulis.hpc reporting.
  Task       61 on host node019.sulis.hpc reporting.
  Task       62 on host node019.sulis.hpc reporting.
  Task       63 on host node019.sulis.hpc reporting.
  Task       64 on host node019.sulis.hpc reporting.
  Task       65 on host node019.sulis.hpc reporting.
  Task       66 on host node019.sulis.hpc reporting.
  Task       67 on host node019.sulis.hpc reporting.
  Task       68 on host node019.sulis.hpc reporting.
  Task       69 on host node019.sulis.hpc reporting.
  Task       70 on host node019.sulis.hpc reporting.
  Task       71 on host node019.sulis.hpc reporting.
  Task       72 on host node019.sulis.hpc reporting.
  Task       73 on host node019.sulis.hpc reporting.
  Task       74 on host node019.sulis.hpc reporting.
  Task       75 on host node019.sulis.hpc reporting.
  Task       76 on host node019.sulis.hpc reporting.
  Task       77 on host node019.sulis.hpc reporting.
  Task       78 on host node019.sulis.hpc reporting.
  Task       79 on host node019.sulis.hpc reporting.
  Task       80 on host node019.sulis.hpc reporting.
  Task       81 on host node019.sulis.hpc reporting.
  Task       82 on host node019.sulis.hpc reporting.
  Task       83 on host node019.sulis.hpc reporting.
  Task       84 on host node019.sulis.hpc reporting.
  Task       85 on host node019.sulis.hpc reporting.
  Task       86 on host node019.sulis.hpc reporting.
  Task       87 on host node019.sulis.hpc reporting.
  Task       88 on host node019.sulis.hpc reporting.
  Task       89 on host node019.sulis.hpc reporting.
  Task       90 on host node019.sulis.hpc reporting.
  Task       91 on host node019.sulis.hpc reporting.
  Task       92 on host node019.sulis.hpc reporting.
  Task       93 on host node019.sulis.hpc reporting.
  Task       94 on host node019.sulis.hpc reporting.
  Task       95 on host node019.sulis.hpc reporting.
  Task       96 on host node019.sulis.hpc reporting.
  Task       97 on host node019.sulis.hpc reporting.
  Task       98 on host node019.sulis.hpc reporting.
  Task       99 on host node019.sulis.hpc reporting.
  Task      100 on host node019.sulis.hpc reporting.
  Task      101 on host node019.sulis.hpc reporting.
  Task      102 on host node019.sulis.hpc reporting.
  Task      103 on host node019.sulis.hpc reporting.
  Task      104 on host node019.sulis.hpc reporting.
  Task      105 on host node019.sulis.hpc reporting.
  Task      106 on host node019.sulis.hpc reporting.
  Task      107 on host node019.sulis.hpc reporting.
  Task      108 on host node019.sulis.hpc reporting.
  Task      109 on host node019.sulis.hpc reporting.
  Task      110 on host node019.sulis.hpc reporting.
  Task      111 on host node019.sulis.hpc reporting.
  Task      112 on host node019.sulis.hpc reporting.
  Task      113 on host node019.sulis.hpc reporting.
  Task      114 on host node019.sulis.hpc reporting.
  Task      115 on host node019.sulis.hpc reporting.
  Task      116 on host node019.sulis.hpc reporting.
  Task      117 on host node019.sulis.hpc reporting.
  Task      118 on host node019.sulis.hpc reporting.
  Task      119 on host node019.sulis.hpc reporting.
  Task      120 on host node019.sulis.hpc reporting.
  Task      121 on host node019.sulis.hpc reporting.
  Task      122 on host node019.sulis.hpc reporting.
  Task      123 on host node019.sulis.hpc reporting.
  Task      124 on host node019.sulis.hpc reporting.
  Task      125 on host node019.sulis.hpc reporting.
  Task      126 on host node019.sulis.hpc reporting.
  Task      127 on host node019.sulis.hpc reporting.

  Performing system and environment tests:
  | Environment variable OMP_NUM_THREADS correctly set to 1.
  | Checking for ScaLAPACK...
  | Testing pdtran()...
  | All pdtran() tests passed.

  Obtaining array dimensions for all initial allocations:
  
  -----------------------------------------------------------------------
  Parsing control.in (first pass over file, find array dimensions only).
  The contents of control.in will be repeated verbatim below
  unless switched off by setting 'verbatim_writeout .false.' .
  in the first line of control.in .
  -----------------------------------------------------------------------
  
  #===============================================================================
  # FHI-aims file: ./control.in
  # Created using the Atomic Simulation Environment (ASE)
  # Wed Mar 23 11:51:40 2022
  #===============================================================================
  xc                                 blyp
  k_grid                             1 1 500
  occupation_type                    gaussian 0.68
  spin                               none
  default_initial_moment             0
  KS_method                          parallel
  RI_method                          LVL_fast
  preconditioner                     kerker 2.0
  sc_accuracy_rho                    1e-06
  sc_accuracy_forces                 0.0001
  output band                        0.0 0.0 0.0  0.0 0.0 0.5  101  Gamma Z
  output dos_tetrahedron             -25.0 10.0 7001
  exx_band_structure_version         1
  #===============================================================================
  
  ################################################################################
  #
  #  FHI-aims code project
  #  Volker Blum, Fritz Haber Institute Berlin, 2009
  #
  #  Suggested "tight" defaults for C atom (to be pasted into control.in file)
  #
  ################################################################################
    species        C
  #     global species definitions
      nucleus             6
      mass                12.0107
  #
      l_hartree           6
  #
      cut_pot             4.0  2.0  1.0
      basis_dep_cutoff    1e-4
  #
      radial_base         34 7.0
      radial_multiplier   2
      angular_grids specified
        division   0.2187   50
        division   0.4416  110
        division   0.6335  194
        division   0.7727  302
        division   0.8772  434
  #      division   0.9334  590
  #      division   0.9924  770
  #      division   1.0230  974
  #      division   1.5020 1202
  #     outer_grid  974
        outer_grid  434
  ################################################################################
  #
  #  Definition of "minimal" basis
  #
  ################################################################################
  #     valence basis states
      valence      2  s   2.
      valence      2  p   2.
  #     ion occupancy
      ion_occ      2  s   1.
      ion_occ      2  p   1.
  ################################################################################
  #
  #  Suggested additional basis functions. For production calculations,
  #  uncomment them one after another (the most important basis functions are
  #  listed first).
  #
  #  Constructed for dimers: 1.0 A, 1.25 A, 1.5 A, 2.0 A, 3.0 A
  #
  ################################################################################
  #  "First tier" - improvements: -1214.57 meV to -155.61 meV
       hydro 2 p 1.7
       hydro 3 d 6
       hydro 2 s 4.9
  #  "Second tier" - improvements: -67.75 meV to -5.23 meV
       hydro 4 f 9.8
       hydro 3 p 5.2
       hydro 3 s 4.3
       hydro 5 g 14.4
       hydro 3 d 6.2
  #  "Third tier" - improvements: -2.43 meV to -0.60 meV
  #     hydro 2 p 5.6
  #     hydro 2 s 1.4
  #     hydro 3 d 4.9
  #     hydro 4 f 11.2
  #  "Fourth tier" - improvements: -0.39 meV to -0.18 meV
  #     hydro 2 p 2.1
  #     hydro 5 g 16.4
  #     hydro 4 d 13.2
  #     hydro 3 s 13.6
  #     hydro 4 f 17.6
  #  Further basis functions - improvements: -0.08 meV and below
  #     hydro 3 s 2
  #     hydro 3 p 6
  #     hydro 4 d 20
  ################################################################################
  #
  # For methods that use the localized form of the "resolution of identity" for
  # the two-electron Coulomb operator (RI_method LVL), particularly Hartree-Fock and
  # hybrid density functional calculations, the highest accuracy can be obtained by
  # uncommenting the line beginning with "for_aux"  below, thus adding an extra g radial
  # function to the construction of the product basis set for the expansion.
  # See Ref. New J. Phys. 17, 093020 (2015) for more information, particularly Figs. 1 and 6.
  #
  ################################################################################
  #
  # for_aux hydro 5 g 6.0
  
  -----------------------------------------------------------------------
  Completed first pass over input file control.in .
  -----------------------------------------------------------------------
  
  
  -----------------------------------------------------------------------
  Parsing geometry.in (first pass over file, find array dimensions only).
  The contents of geometry.in will be repeated verbatim below
  unless switched off by setting 'verbatim_writeout .false.' .
  in the first line of geometry.in .
  -----------------------------------------------------------------------
  
  #
  # This is the geometry file that corresponds to the current relaxation step.
  # If you do not want this file to be written, set the "write_restart_geometry" flag to .false.
  #  aims_uuid : B03F8FA3-5287-4879-A82D-936AF535FB5D
  #
  lattice_vector     19.10157004     -0.78557505     -0.00473152
  lattice_vector      0.78501144     18.49291161     -0.00460971
  lattice_vector     -0.00511693      0.00024077      2.47446846
  atom_frac       0.63623214      0.51708377      0.50402373 C
  atom_frac       0.58878943      0.41291279      0.00297514 C
  atom_frac       0.49109547      0.35750611      0.50110461 C
  atom_frac       0.38045155      0.37203092     -0.00085667 C
  atom_frac       0.29913031      0.45095257      0.49782790 C
  atom_frac       0.27820536      0.56411212     -0.00235048 C
  atom_frac       0.32564876      0.66828164      0.49871412 C
  atom_frac       0.42334171      0.72368874      0.00056433 C
  atom_frac       0.53398596      0.70916683      0.50253684 C
  atom_frac       0.61530795      0.63024464      0.00385667 C
  atom_frac       0.62761269      0.47910918      0.00380498 C
  atom_frac       0.56020273      0.38744837      0.50242926 C
  atom_frac       0.45345303      0.35427702      0.00044151 C
  atom_frac       0.34813403      0.39227540      0.49862518 C
  atom_frac       0.28448748      0.48693690     -0.00237392 C
  atom_frac       0.28682485      0.60208609      0.49787855 C
  atom_frac       0.35423482      0.69374559     -0.00074950 C
  atom_frac       0.46098406      0.72691883      0.50122758 C
  atom_frac       0.56630452      0.68892239      0.00306440 C
  atom_frac       0.62995062      0.59425943      0.50404618 C
  
  
  -----------------------------------------------------------------------
  Completed first pass over input file geometry.in .
  -----------------------------------------------------------------------
  

  Basic array size parameters:
  | Number of species                 :        1
  | Number of atoms                   :       20
  | Number of lattice vectors         :        3
  | Max. basis fn. angular momentum   :        4
  | Max. atomic/ionic basis occupied n:        2
  | Max. number of basis fn. types    :        2
  | Max. radial fns per species/type  :        8
  | Max. logarithmic grid size        :     1277
  | Max. radial integration grid size :       69
  | Max. angular integration grid size:      434
  | Max. angular grid division number :        8
  | Radial grid for Hartree potential :     1277
  | Number of spin channels           :        1

------------------------------------------------------------
          Reading file control.in.
------------------------------------------------------------
  XC: Using BLYP gradient-corrected functional.
  Found k-point grid:         1         1       500
  Occupation type: Gaussian broadening, width =   0.680000E+00 eV.
  Spin treatment: No spin polarisation.
  Initial spin moment per atom:   0.0000
  Kohn-Sham electronic structure solved by the ELSI library.
  The 'LVL' version of RI (resolution of identity) technique is used.
  ** This is a localized expansion of all basis function products.
     Its intended use are Hartree-Fock and hybrid functionals.
     For RPA, MP2, GW, etc., LVL is not yet as accurate. In those cases, check carefully.
  Using Kerker preconditioning with damping at q_0 =     0.2000E+01
  Convergence accuracy of self-consistent charge density:  0.1000E-05
  Convergence accuracy of forces:  0.1000E-03

  Plot band    1
  | begin  0.000000  0.000000  0.000000
  | end    0.000000  0.000000  0.500000
  | number of points:  101
  Calculating density of states with
  | energy interval :-25.000000 10.000000
  | points & tetrahedron method :  7001

  Reading configuration options for species C                   .
  | Found nuclear charge :   6.0000
  | Found atomic mass :    12.010700000000000      amu
  | Found l_max for Hartree potential  :   6
  | Found cutoff potl. onset [A], width [A], scale factor :    4.00000    2.00000    1.00000
  | Threshold for basis-dependent cutoff potential is   0.100000E-03
  | Found data for basic radial integration grid :    34 points, outermost radius =    7.000 A
  | Found multiplier for basic radial grid :   2
  | Found angular grid specification: user-specified.
  | Specified grid contains     6 separate shells.
  | Check grid settings after all constraints further below.
  | Found free-atom valence shell :  2 s   2.000
  | Found free-atom valence shell :  2 p   2.000
  | No ionic wave fns used. Skipping ion_occ.
  | No ionic wave fns used. Skipping ion_occ.
  | Found hydrogenic basis function :  2 p   1.700
  | Found hydrogenic basis function :  3 d   6.000
  | Found hydrogenic basis function :  2 s   4.900
  | Found hydrogenic basis function :  4 f   9.800
  | Found hydrogenic basis function :  3 p   5.200
  | Found hydrogenic basis function :  3 s   4.300
  | Found hydrogenic basis function :  5 g  14.400
  | Found hydrogenic basis function :  3 d   6.200
  Species C                   : Missing cutoff potential type.
  Defaulting to exp(1/x)/(1-x)^2 type cutoff potential.
  Species C : No 'logarithmic' tag. Using default grid for free atom:
  | Default logarithmic grid data [bohr] : 0.1000E-03 0.1000E+03 0.1012E+01
  Species C : On-site basis accuracy parameter (for Gram-Schmidt orthonormalisation) not specified.
  Using default value basis_acc =  0.1000000E-03.
  Species C                   : Using default innermost maximum threshold i_radial=  2 for radial functions.
  Species C                   : Default cutoff onset for free atom density etc. : 0.40000000E+01 AA.
  Species C                   : Basic radial grid will be enhanced according to radial_multiplier =   2, to contain    69 grid points.

  Finished reading input file 'control.in'.

------------------------------------------------------------


------------------------------------------------------------
          Reading geometry description geometry.in.
------------------------------------------------------------
  | The smallest distance between any two atoms is         1.43252077 AA.
  | The first atom of this pair is atom number                     17 .
  | The second atom of this pair is atom number                     7 .
  | Wigner-Seitz cell of the first atom image           0     0     1 .
  | (The Wigner-Seitz cell of the second atom is 0 0 0  by definition.)

  Symmetry information by spglib:
  | Precision set to  0.1E-04
  | Number of Operations  : 1
  | Space group           : 1
  | International         : P1
  | Schoenflies           : C1^1
  Input structure read successfully.
  The structure contains       20 atoms,  and a total of        120.000 electrons.

  Input geometry:
  | Unit cell:
  |       19.10157004       -0.78557505       -0.00473152
  |        0.78501144       18.49291161       -0.00460971
  |       -0.00511693        0.00024077        2.47446846
  | Atomic structure:
  |       Atom                x [A]            y [A]            z [A]
  |    1: Species C            12.55637040        9.06269771        1.24179687
  |    2: Species C            11.57092858        7.17342216        0.00267261
  |    3: Species C             9.65877679        6.22565719        1.23599593
  |    4: Species C             7.55927484        6.58106147       -0.00563487
  |    5: Species C             6.06531414        8.10455657        1.22836534
  |    6: Species C             5.75700566       10.21352382       -0.00973292
  |    7: Species C             6.74245944       12.10277183        1.22943096
  |    8: Species C             8.65459238       13.05054535       -0.00394263
  |    9: Species C            10.75410284       12.69519445        1.23771594
  |   10: Species C            12.24807742       11.17168878        0.00372662
  |   11: Species C            12.36447447        8.36708776        0.00423719
  |   12: Species C            11.00233219        6.72508814        1.23880872
  |   13: Species C             8.93977407        6.19539234       -0.00268613
  |   14: Species C             6.95529580        6.98094894        1.23037680
  |   15: Species C             5.81642071        8.78139421       -0.00946489
  |   16: Species C             5.94890182       10.90912227        1.22785221
  |   17: Species C             7.31104328       12.55109766       -0.00672865
  |   18: Species C             9.37359416       13.08082878        1.23473980
  |   19: Species C            11.35810173       12.29530690        0.00172755
  |   20: Species C            12.49696717       10.49483498        1.24152639

  Lattice parameters for 3D lattice (in Angstroms) :    19.117718   18.509566    2.474474
  Angle(s) between unit vectors (in degrees)       :    90.013724   90.132791   89.924320


  Quantities derived from the lattice vectors:
  | Reciprocal lattice vector 1:  0.328362 -0.013939  0.000680
  | Reciprocal lattice vector 2:  0.013949  0.339170 -0.000004
  | Reciprocal lattice vector 3:  0.000654  0.000605  2.539207
  | Unit cell volume                               :   0.875616E+03  A^3

  Fractional coordinates:
                         L1                L2                L3
       atom_frac         0.63623214        0.51708377        0.50402373  C
       atom_frac         0.58878943        0.41291279        0.00297514  C
       atom_frac         0.49109547        0.35750611        0.50110461  C
       atom_frac         0.38045155        0.37203092       -0.00085667  C
       atom_frac         0.29913031        0.45095257        0.49782790  C
       atom_frac         0.27820536        0.56411212       -0.00235048  C
       atom_frac         0.32564876        0.66828164        0.49871412  C
       atom_frac         0.42334171        0.72368874        0.00056433  C
       atom_frac         0.53398596        0.70916683        0.50253684  C
       atom_frac         0.61530795        0.63024464        0.00385667  C
       atom_frac         0.62761269        0.47910918        0.00380498  C
       atom_frac         0.56020273        0.38744837        0.50242926  C
       atom_frac         0.45345303        0.35427702        0.00044151  C
       atom_frac         0.34813403        0.39227540        0.49862518  C
       atom_frac         0.28448748        0.48693690       -0.00237392  C
       atom_frac         0.28682485        0.60208609        0.49787855  C
       atom_frac         0.35423482        0.69374559       -0.00074950  C
       atom_frac         0.46098406        0.72691883        0.50122758  C
       atom_frac         0.56630452        0.68892239        0.00306440  C
       atom_frac         0.62995062        0.59425943        0.50404618  C


  Finished reading input file 'control.in'.


------------------------------------------------------------
          Reading geometry description geometry.in.
------------------------------------------------------------

  Consistency checks for stacksize environment parameter are next.

  | Maximum stacksize for task 0: unlimited
  | Maximum stacksize for task 1: unlimited
  | Maximum stacksize for task 2: unlimited
  | Maximum stacksize for task 3: unlimited
  | Maximum stacksize for task 4: unlimited
  | Maximum stacksize for task 5: unlimited
  | Maximum stacksize for task 6: unlimited
  | Maximum stacksize for task 7: unlimited
  | Maximum stacksize for task 8: unlimited
  | Maximum stacksize for task 9: unlimited
  | Maximum stacksize for task 10: unlimited
  | Maximum stacksize for task 11: unlimited
  | Maximum stacksize for task 12: unlimited
  | Maximum stacksize for task 13: unlimited
  | Maximum stacksize for task 14: unlimited
  | Maximum stacksize for task 15: unlimited
  | Maximum stacksize for task 16: unlimited
  | Maximum stacksize for task 17: unlimited
  | Maximum stacksize for task 18: unlimited
  | Maximum stacksize for task 19: unlimited
  | Maximum stacksize for task 20: unlimited
  | Maximum stacksize for task 21: unlimited
  | Maximum stacksize for task 22: unlimited
  | Maximum stacksize for task 23: unlimited
  | Maximum stacksize for task 24: unlimited
  | Maximum stacksize for task 25: unlimited
  | Maximum stacksize for task 26: unlimited
  | Maximum stacksize for task 27: unlimited
  | Maximum stacksize for task 28: unlimited
  | Maximum stacksize for task 29: unlimited
  | Maximum stacksize for task 30: unlimited
  | Maximum stacksize for task 31: unlimited
  | Maximum stacksize for task 32: unlimited
  | Maximum stacksize for task 33: unlimited
  | Maximum stacksize for task 34: unlimited
  | Maximum stacksize for task 35: unlimited
  | Maximum stacksize for task 36: unlimited
  | Maximum stacksize for task 37: unlimited
  | Maximum stacksize for task 38: unlimited
  | Maximum stacksize for task 39: unlimited
  | Maximum stacksize for task 40: unlimited
  | Maximum stacksize for task 41: unlimited
  | Maximum stacksize for task 42: unlimited
  | Maximum stacksize for task 43: unlimited
  | Maximum stacksize for task 44: unlimited
  | Maximum stacksize for task 45: unlimited
  | Maximum stacksize for task 46: unlimited
  | Maximum stacksize for task 47: unlimited
  | Maximum stacksize for task 48: unlimited
  | Maximum stacksize for task 49: unlimited
  | Maximum stacksize for task 50: unlimited
  | Maximum stacksize for task 51: unlimited
  | Maximum stacksize for task 52: unlimited
  | Maximum stacksize for task 53: unlimited
  | Maximum stacksize for task 54: unlimited
  | Maximum stacksize for task 55: unlimited
  | Maximum stacksize for task 56: unlimited
  | Maximum stacksize for task 57: unlimited
  | Maximum stacksize for task 58: unlimited
  | Maximum stacksize for task 59: unlimited
  | Maximum stacksize for task 60: unlimited
  | Maximum stacksize for task 61: unlimited
  | Maximum stacksize for task 62: unlimited
  | Maximum stacksize for task 63: unlimited
  | Maximum stacksize for task 64: unlimited
  | Maximum stacksize for task 65: unlimited
  | Maximum stacksize for task 66: unlimited
  | Maximum stacksize for task 67: unlimited
  | Maximum stacksize for task 68: unlimited
  | Maximum stacksize for task 69: unlimited
  | Maximum stacksize for task 70: unlimited
  | Maximum stacksize for task 71: unlimited
  | Maximum stacksize for task 72: unlimited
  | Maximum stacksize for task 73: unlimited
  | Maximum stacksize for task 74: unlimited
  | Maximum stacksize for task 75: unlimited
  | Maximum stacksize for task 76: unlimited
  | Maximum stacksize for task 77: unlimited
  | Maximum stacksize for task 78: unlimited
  | Maximum stacksize for task 79: unlimited
  | Maximum stacksize for task 80: unlimited
  | Maximum stacksize for task 81: unlimited
  | Maximum stacksize for task 82: unlimited
  | Maximum stacksize for task 83: unlimited
  | Maximum stacksize for task 84: unlimited
  | Maximum stacksize for task 85: unlimited
  | Maximum stacksize for task 86: unlimited
  | Maximum stacksize for task 87: unlimited
  | Maximum stacksize for task 88: unlimited
  | Maximum stacksize for task 89: unlimited
  | Maximum stacksize for task 90: unlimited
  | Maximum stacksize for task 91: unlimited
  | Maximum stacksize for task 92: unlimited
  | Maximum stacksize for task 93: unlimited
  | Maximum stacksize for task 94: unlimited
  | Maximum stacksize for task 95: unlimited
  | Maximum stacksize for task 96: unlimited
  | Maximum stacksize for task 97: unlimited
  | Maximum stacksize for task 98: unlimited
  | Maximum stacksize for task 99: unlimited
  | Maximum stacksize for task 100: unlimited
  | Maximum stacksize for task 101: unlimited
  | Maximum stacksize for task 102: unlimited
  | Maximum stacksize for task 103: unlimited
  | Maximum stacksize for task 104: unlimited
  | Maximum stacksize for task 105: unlimited
  | Maximum stacksize for task 106: unlimited
  | Maximum stacksize for task 107: unlimited
  | Maximum stacksize for task 108: unlimited
  | Maximum stacksize for task 109: unlimited
  | Maximum stacksize for task 110: unlimited
  | Maximum stacksize for task 111: unlimited
  | Maximum stacksize for task 112: unlimited
  | Maximum stacksize for task 113: unlimited
  | Maximum stacksize for task 114: unlimited
  | Maximum stacksize for task 115: unlimited
  | Maximum stacksize for task 116: unlimited
  | Maximum stacksize for task 117: unlimited
  | Maximum stacksize for task 118: unlimited
  | Maximum stacksize for task 119: unlimited
  | Maximum stacksize for task 120: unlimited
  | Maximum stacksize for task 121: unlimited
  | Maximum stacksize for task 122: unlimited
  | Maximum stacksize for task 123: unlimited
  | Maximum stacksize for task 124: unlimited
  | Maximum stacksize for task 125: unlimited
  | Maximum stacksize for task 126: unlimited
  | Maximum stacksize for task 127: unlimited
  | Current stacksize for task 0: unlimited
  | Current stacksize for task 1: unlimited
  | Current stacksize for task 2: unlimited
  | Current stacksize for task 3: unlimited
  | Current stacksize for task 4: unlimited
  | Current stacksize for task 5: unlimited
  | Current stacksize for task 6: unlimited
  | Current stacksize for task 7: unlimited
  | Current stacksize for task 8: unlimited
  | Current stacksize for task 9: unlimited
  | Current stacksize for task 10: unlimited
  | Current stacksize for task 11: unlimited
  | Current stacksize for task 12: unlimited
  | Current stacksize for task 13: unlimited
  | Current stacksize for task 14: unlimited
  | Current stacksize for task 15: unlimited
  | Current stacksize for task 16: unlimited
  | Current stacksize for task 17: unlimited
  | Current stacksize for task 18: unlimited
  | Current stacksize for task 19: unlimited
  | Current stacksize for task 20: unlimited
  | Current stacksize for task 21: unlimited
  | Current stacksize for task 22: unlimited
  | Current stacksize for task 23: unlimited
  | Current stacksize for task 24: unlimited
  | Current stacksize for task 25: unlimited
  | Current stacksize for task 26: unlimited
  | Current stacksize for task 27: unlimited
  | Current stacksize for task 28: unlimited
  | Current stacksize for task 29: unlimited
  | Current stacksize for task 30: unlimited
  | Current stacksize for task 31: unlimited
  | Current stacksize for task 32: unlimited
  | Current stacksize for task 33: unlimited
  | Current stacksize for task 34: unlimited
  | Current stacksize for task 35: unlimited
  | Current stacksize for task 36: unlimited
  | Current stacksize for task 37: unlimited
  | Current stacksize for task 38: unlimited
  | Current stacksize for task 39: unlimited
  | Current stacksize for task 40: unlimited
  | Current stacksize for task 41: unlimited
  | Current stacksize for task 42: unlimited
  | Current stacksize for task 43: unlimited
  | Current stacksize for task 44: unlimited
  | Current stacksize for task 45: unlimited
  | Current stacksize for task 46: unlimited
  | Current stacksize for task 47: unlimited
  | Current stacksize for task 48: unlimited
  | Current stacksize for task 49: unlimited
  | Current stacksize for task 50: unlimited
  | Current stacksize for task 51: unlimited
  | Current stacksize for task 52: unlimited
  | Current stacksize for task 53: unlimited
  | Current stacksize for task 54: unlimited
  | Current stacksize for task 55: unlimited
  | Current stacksize for task 56: unlimited
  | Current stacksize for task 57: unlimited
  | Current stacksize for task 58: unlimited
  | Current stacksize for task 59: unlimited
  | Current stacksize for task 60: unlimited
  | Current stacksize for task 61: unlimited
  | Current stacksize for task 62: unlimited
  | Current stacksize for task 63: unlimited
  | Current stacksize for task 64: unlimited
  | Current stacksize for task 65: unlimited
  | Current stacksize for task 66: unlimited
  | Current stacksize for task 67: unlimited
  | Current stacksize for task 68: unlimited
  | Current stacksize for task 69: unlimited
  | Current stacksize for task 70: unlimited
  | Current stacksize for task 71: unlimited
  | Current stacksize for task 72: unlimited
  | Current stacksize for task 73: unlimited
  | Current stacksize for task 74: unlimited
  | Current stacksize for task 75: unlimited
  | Current stacksize for task 76: unlimited
  | Current stacksize for task 77: unlimited
  | Current stacksize for task 78: unlimited
  | Current stacksize for task 79: unlimited
  | Current stacksize for task 80: unlimited
  | Current stacksize for task 81: unlimited
  | Current stacksize for task 82: unlimited
  | Current stacksize for task 83: unlimited
  | Current stacksize for task 84: unlimited
  | Current stacksize for task 85: unlimited
  | Current stacksize for task 86: unlimited
  | Current stacksize for task 87: unlimited
  | Current stacksize for task 88: unlimited
  | Current stacksize for task 89: unlimited
  | Current stacksize for task 90: unlimited
  | Current stacksize for task 91: unlimited
  | Current stacksize for task 92: unlimited
  | Current stacksize for task 93: unlimited
  | Current stacksize for task 94: unlimited
  | Current stacksize for task 95: unlimited
  | Current stacksize for task 96: unlimited
  | Current stacksize for task 97: unlimited
  | Current stacksize for task 98: unlimited
  | Current stacksize for task 99: unlimited
  | Current stacksize for task 100: unlimited
  | Current stacksize for task 101: unlimited
  | Current stacksize for task 102: unlimited
  | Current stacksize for task 103: unlimited
  | Current stacksize for task 104: unlimited
  | Current stacksize for task 105: unlimited
  | Current stacksize for task 106: unlimited
  | Current stacksize for task 107: unlimited
  | Current stacksize for task 108: unlimited
  | Current stacksize for task 109: unlimited
  | Current stacksize for task 110: unlimited
  | Current stacksize for task 111: unlimited
  | Current stacksize for task 112: unlimited
  | Current stacksize for task 113: unlimited
  | Current stacksize for task 114: unlimited
  | Current stacksize for task 115: unlimited
  | Current stacksize for task 116: unlimited
  | Current stacksize for task 117: unlimited
  | Current stacksize for task 118: unlimited
  | Current stacksize for task 119: unlimited
  | Current stacksize for task 120: unlimited
  | Current stacksize for task 121: unlimited
  | Current stacksize for task 122: unlimited
  | Current stacksize for task 123: unlimited
  | Current stacksize for task 124: unlimited
  | Current stacksize for task 125: unlimited
  | Current stacksize for task 126: unlimited
  | Current stacksize for task 127: unlimited

  Consistency checks for the contents of control.in are next.

  MPI_IN_PLACE appears to work with this MPI implementation.
  | Keeping use_mpi_in_place .true. (see manual).
  Target number of points in a grid batch is not set. Defaulting to  100
  Method for grid partitioning is not set. Defaulting to parallel hash+maxmin partitioning.
  Batch size limit is not set. Defaulting to    200
  By default, will store active basis functions for each batch.
  If in need of memory, prune_basis_once .false. can be used to disable this option.
  communication_type for Hartree potential was not specified.
  Defaulting to calc_hartree .
  Defaulting to Pulay charge density mixer.
  Pulay mixer: Number of relevant iterations not set.
  Defaulting to    8 iterations.
  Pulay mixer: Number of initial linear mixing iterations not set.
  Defaulting to    0 iterations.
  Work space size for distributed Hartree potential not set.
  Defaulting to   0.200000E+03 MB.
  Mixing parameter for charge density mixing has not been set.
  Using default: charge_mix_param =     0.0500.
  The mixing parameter will be adjusted in iteration number     2 of the first full s.c.f. cycle only.
  Algorithm-dependent basis array size parameters:
  | n_max_pulay                         :        8
  Maximum number of self-consistency iterations not provided.
  Presetting  1000 iterations.
  Presetting      1001 iterations before the initial mixing cycle
  is restarted anyway using the sc_init_iter criterion / keyword.
  Presetting a factor      1.000 between actual scf density residual
  and density convergence criterion sc_accuracy_rho below which sc_init_iter
  takes no effect.
  Geometry relaxation not requested: no relaxation will be performed.
  Forces evaluation will include force correction term due to incomplete self-consistency (default).
  Handling of forces: Unphysical translation and rotation will be removed from forces.
  No accuracy limit for integral partition fn. given. Defaulting to  0.1000E-14.
  No threshold value for u(r) in integrations given. Defaulting to  0.1000E-05.
  No accuracy for occupation numbers given. Defaulting to  0.1000E-12.
  No threshold value for occupation numbers given. Defaulting to  0.0000E+00.
  No accuracy for fermi level given. Defaulting to  0.1000E-19.
  Maximum # of iterations to find E_F not set. Defaulting to  200.
 * You have   500 k-points in your system, but only   128 MPI-tasks available.
 * In this case using ScaLAPACK is not necessary / supported.
 * Switching to LAPACK (via ELSI) instead.
  Will not use alltoall communication since running on < 1024 CPUs.
  Threshold for basis singularities not set.
  Default threshold for basis singularities:  0.1000E-04
  partition_type (choice of integration weights) for integrals was not specified.
  | Using a version of the partition function of Stratmann and coworkers ('stratmann_sparse').
  | At each grid point, the set of atoms used to build the partition table is smoothly restricted to
  | only those atoms whose free-atom density would be non-zero at that grid point.
  Partitioning for Hartree potential was not defined. Using partition_type for integrals.
  | Adjusted default value of keyword multip_moments_threshold to:       0.10000000E-11
  | This value may affect high angular momentum components of the Hartree potential in periodic systems.
  Angular momentum expansion for Kerker preconditioner not set explicitly.
  | Using default value of   0
  No explicit requirement for turning off preconditioner.
  | By default, it will be turned off when the charge convergence reaches
  | sc_accuracy_rho  =   0.100000E-05
  No special mixing parameter while Kerker preconditioner is on.
  Using default: charge_mix_param =     0.0500.
  No q(lm)/r^(l+1) cutoff set for long-range Hartree potential.
  | Using default value of  0.100000E-09 .
  | Verify using the multipole_threshold keyword.
  Defaulting to new monopole extrapolation.
  Density update method: automatic selection selected.
  Using density matrix based charge density update.
  Using density matrix based charge density update.
  Using packed matrix style: index .
  Defaulting to use time-reversal symmetry for k-point grid.
  Charge integration errors on the 3D integration grid will be compensated
  by explicit normalization and distribution of residual charges.
  Use the "compensate_multipole_errors" flag to change this behaviour.
  Set 'collect_eigenvectors' to be '.true.' for all serial calculations. This is mandatory.
  Set 'collect_eigenvectors' to be '.true.' for KS_method lapack_fast and serial.

  Consistency checks for the contents of geometry.in are next.


  Range separation radius for Ewald summation (hartree_convergence_parameter):      5.00000000 bohr.
 * Warning! You did not set the 'relativistic' flag in input file 'control.in'.
 * Since you are not attempting to treat any elements beyond Ca(Z=20), FHI-aims
 * will default to 'relativistic none'.
 * You must ensure that this is really what you want!!
 * For example, DO NOT compute total-energy differences between results from
 * different settings of the 'relativistic' flag.
  Number of empty states per atom not set in control.in - providing a guess from actual geometry.
  | Total number of empty states used during s.c.f. cycle:       60
  If you use a very high smearing, use empty_states (per atom!) in control.in to increase this value.

  Structure-dependent array size parameters: 
  | Maximum number of distinct radial functions  :       11
  | Maximum number of basis functions            :      780
  | Number of Kohn-Sham states (occupied + empty):      120
------------------------------------------------------------

------------------------------------------------------------
          Preparing all fixed parts of the calculation.
------------------------------------------------------------
  Determining machine precision:
     2.2250738585072014E-308
  Setting up grids for atomic and cluster calculations.

  Creating wave function, potential, and density for free atoms.

  Species: C

  List of occupied orbitals and eigenvalues:
    n    l              occ      energy [Ha]    energy [eV]
    1    0           2.0000       -10.061602      -273.7901
    2    0           2.0000        -0.499120       -13.5817
    2    1           2.0000        -0.191941        -5.2230


  Adding cutoff potential to free-atom effective potential.
  Creating fixed part of basis set: Ionic, confined, hydrogenic.

  C                    hydrogenic:

  List of hydrogenic basis orbitals: 
    n    l      effective z      eigenvalue [eV]  inner max. [A]     outer max. [A]     outer radius [A]   
    2    1         1.700000        -9.8152           1.245706           1.245706           5.401630
    3    2         6.000000       -54.4226           0.792453           0.792453           4.178599
    2    0         4.900000       -81.6681           0.082559           0.562749           3.353238
    4    3         9.800000       -81.6681           0.863254           0.863254           4.028125
    3    1         5.200000       -40.8774           0.305389           1.215618           4.898362
    3    0         4.300000       -27.9508           0.091041           1.610311           5.401630
    5    4        14.400000      -112.8510           0.917666           0.917666           3.883070
    3    2         6.200000       -58.1113           0.763917           0.763917           4.077671

  Creating atomic-like basis functions for current effective potential.

  Species C                   :

  List of atomic basis orbitals and eigenvalues:
    n    l      energy [Ha]    energy [eV]    outer radius [A]
    1    0       -10.061602      -273.7901       1.934409
    2    0        -0.499120       -13.5817       5.271162
    2    1        -0.191941        -5.2230       5.401630

  Assembling full basis from fixed parts.
  | Species C :   atomic orbital   1 s accepted.
  | Species C :    hydro orbital   2 s accepted.
  | Species C :   atomic orbital   2 s accepted.
  | Species C :    hydro orbital   3 s accepted.
  | Species C :    hydro orbital   3 p accepted.
  | Species C :   atomic orbital   2 p accepted.
  | Species C :    hydro orbital   2 p accepted.
  | Species C :    hydro orbital   3 d accepted.
  | Species C :    hydro orbital   3 d accepted.
  | Species C :    hydro orbital   4 f accepted.
  | Species C :    hydro orbital   5 g accepted.

  Basis size parameters after reduction:
  | Total number of radial functions:       11
  | Total number of basis functions :      780

  Per-task memory consumption for arrays in subroutine allocate_ext:
  |           2.714316MB.
  Testing on-site integration grid accuracy.
  |  Species  Function  <phi|h_atom|phi> (log., in eV)  <phi|h_atom|phi> (rad., in eV)
           1        1               -273.7901162246               -273.7901146924
           1        2                -10.6593454322                -10.6593675792
           1        3                 17.0527610142                 17.0527815066
           1        4                 55.0622378564                 55.0625162637
           1        5                 15.0505160693                 15.0505129260
           1        6                  3.7659134156                  3.7659773891
           1        7                 11.8078976666                 11.8103928498
           1        8                 29.6365046523                 29.6365049766
           1        9                 54.7437900785                 54.7437027864
           1       10                 59.5933351698                 59.5933351037
           1       11                 93.7035349135                 93.7035349877

  Preparing densities etc. for the partition functions (integrals / Hartree potential).

  Preparations completed.
  max(cpu_time)          :      0.111 s.
  Wall clock time (cpu1) :      0.112 s.
------------------------------------------------------------

------------------------------------------------------------
          Begin self-consistency loop: Initialization.

          Date     :  20220323, Time     :  133750.042
------------------------------------------------------------

  Initializing index lists of integration centers etc. from given atomic structure:
  Mapping all atomic coordinates to central unit cell.

  Initializing the k-points
  Using symmetry for reducing the k-points
  | k-points reduced from:      500 to      251
  | Number of k-points                             :       251
  The eigenvectors in the calculations are COMPLEX.
  | K-points in task   0:         1
  | K-points in task   1:         2
  | K-points in task   2:         2
  | K-points in task   3:         2
  | K-points in task   4:         2
  | K-points in task   5:         2
  | K-points in task   6:         2
  | K-points in task   7:         2
  | K-points in task   8:         2
  | K-points in task   9:         2
  | K-points in task  10:         2
  | K-points in task  11:         2
  | K-points in task  12:         2
  | K-points in task  13:         2
  | K-points in task  14:         2
  | K-points in task  15:         2
  | K-points in task  16:         2
  | K-points in task  17:         2
  | K-points in task  18:         2
  | K-points in task  19:         2
  | K-points in task  20:         2
  | K-points in task  21:         2
  | K-points in task  22:         2
  | K-points in task  23:         2
  | K-points in task  24:         2
  | K-points in task  25:         2
  | K-points in task  26:         2
  | K-points in task  27:         2
  | K-points in task  28:         2
  | K-points in task  29:         2
  | K-points in task  30:         2
  | K-points in task  31:         2
  | K-points in task  32:         2
  | K-points in task  33:         2
  | K-points in task  34:         2
  | K-points in task  35:         2
  | K-points in task  36:         2
  | K-points in task  37:         2
  | K-points in task  38:         2
  | K-points in task  39:         2
  | K-points in task  40:         2
  | K-points in task  41:         2
  | K-points in task  42:         2
  | K-points in task  43:         2
  | K-points in task  44:         2
  | K-points in task  45:         2
  | K-points in task  46:         2
  | K-points in task  47:         2
  | K-points in task  48:         2
  | K-points in task  49:         2
  | K-points in task  50:         2
  | K-points in task  51:         2
  | K-points in task  52:         2
  | K-points in task  53:         2
  | K-points in task  54:         2
  | K-points in task  55:         2
  | K-points in task  56:         2
  | K-points in task  57:         2
  | K-points in task  58:         2
  | K-points in task  59:         2
  | K-points in task  60:         2
  | K-points in task  61:         2
  | K-points in task  62:         2
  | K-points in task  63:         2
  | K-points in task  64:         2
  | K-points in task  65:         2
  | K-points in task  66:         2
  | K-points in task  67:         2
  | K-points in task  68:         2
  | K-points in task  69:         2
  | K-points in task  70:         2
  | K-points in task  71:         2
  | K-points in task  72:         2
  | K-points in task  73:         2
  | K-points in task  74:         2
  | K-points in task  75:         2
  | K-points in task  76:         2
  | K-points in task  77:         2
  | K-points in task  78:         2
  | K-points in task  79:         2
  | K-points in task  80:         2
  | K-points in task  81:         2
  | K-points in task  82:         2
  | K-points in task  83:         2
  | K-points in task  84:         2
  | K-points in task  85:         2
  | K-points in task  86:         2
  | K-points in task  87:         2
  | K-points in task  88:         2
  | K-points in task  89:         2
  | K-points in task  90:         2
  | K-points in task  91:         2
  | K-points in task  92:         2
  | K-points in task  93:         2
  | K-points in task  94:         2
  | K-points in task  95:         2
  | K-points in task  96:         2
  | K-points in task  97:         2
  | K-points in task  98:         2
  | K-points in task  99:         2
  | K-points in task 100:         2
  | K-points in task 101:         2
  | K-points in task 102:         2
  | K-points in task 103:         2
  | K-points in task 104:         2
  | K-points in task 105:         2
  | K-points in task 106:         2
  | K-points in task 107:         2
  | K-points in task 108:         2
  | K-points in task 109:         2
  | K-points in task 110:         2
  | K-points in task 111:         2
  | K-points in task 112:         2
  | K-points in task 113:         2
  | K-points in task 114:         2
  | K-points in task 115:         2
  | K-points in task 116:         2
  | K-points in task 117:         2
  | K-points in task 118:         2
  | K-points in task 119:         2
  | K-points in task 120:         2
  | K-points in task 121:         2
  | K-points in task 122:         2
  | K-points in task 123:         2
  | K-points in task 124:         1
  | K-points in task 125:         1
  | K-points in task 126:         1
  | K-points in task 127:         1
  | Number of basis functions in the Hamiltonian integrals :     12197
  | Number of basis functions in a single unit cell        :       780
  | Number of centers in hartree potential         :      1421
  | Number of centers in hartree multipole         :       832
  | Number of centers in electron density summation:       742
  | Number of centers in basis integrals           :       758
  | Number of centers in integrals                 :       422
  | Number of centers in hamiltonian               :       742
  | Consuming        360 KiB for k_phase.
  | Number of super-cells (origin) [n_cells]                     :         425
  | Number of super-cells (after PM_index) [n_cells]             :          92
  | Number of super-cells in hamiltonian [n_cells_in_hamiltonian]:          92
  | Size of matrix packed + index [n_hamiltonian_matrix_size] :     1832403
  | Estimated reciprocal-space cutoff momentum G_max:         1.90186217 bohr^-1 .
  | Reciprocal lattice points for long-range Hartree potential:     726
  Partitioning the integration grid into batches with parallel hashing+maxmin method.
  | Number of batches:     3007
  | Maximal batch size:     200
  | Minimal batch size:       3
  | Average batch size:     120.239
  | Standard deviation of batch sizes:      29.022

  Integration load balanced across   128 MPI tasks.
  Work distribution over tasks is as follows:
  Task     0 has       2800 integration points.
  Task     1 has       2834 integration points.
  Task     2 has       2815 integration points.
  Task     3 has       2832 integration points.
  Task     4 has       2795 integration points.
  Task     5 has       2801 integration points.
  Task     6 has       2831 integration points.
  Task     7 has       2791 integration points.
  Task     8 has       2889 integration points.
  Task     9 has       2817 integration points.
  Task    10 has       2787 integration points.
  Task    11 has       2782 integration points.
  Task    12 has       2837 integration points.
  Task    13 has       2838 integration points.
  Task    14 has       2808 integration points.
  Task    15 has       2832 integration points.
  Task    16 has       2807 integration points.
  Task    17 has       2850 integration points.
  Task    18 has       2835 integration points.
  Task    19 has       2791 integration points.
  Task    20 has       2799 integration points.
  Task    21 has       2817 integration points.
  Task    22 has       2791 integration points.
  Task    23 has       2905 integration points.
  Task    24 has       2885 integration points.
  Task    25 has       2891 integration points.
  Task    26 has       2827 integration points.
  Task    27 has       2780 integration points.
  Task    28 has       2787 integration points.
  Task    29 has       2888 integration points.
  Task    30 has       2783 integration points.
  Task    31 has       2896 integration points.
  Task    32 has       2787 integration points.
  Task    33 has       2817 integration points.
  Task    34 has       2833 integration points.
  Task    35 has       2826 integration points.
  Task    36 has       2888 integration points.
  Task    37 has       2824 integration points.
  Task    38 has       2781 integration points.
  Task    39 has       2812 integration points.
  Task    40 has       2788 integration points.
  Task    41 has       2815 integration points.
  Task    42 has       2829 integration points.
  Task    43 has       2836 integration points.
  Task    44 has       2830 integration points.
  Task    45 has       2891 integration points.
  Task    46 has       2782 integration points.
  Task    47 has       2904 integration points.
  Task    48 has       2837 integration points.
  Task    49 has       2853 integration points.
  Task    50 has       2835 integration points.
  Task    51 has       2784 integration points.
  Task    52 has       2831 integration points.
  Task    53 has       2789 integration points.
  Task    54 has       2907 integration points.
  Task    55 has       2849 integration points.
  Task    56 has       2784 integration points.
  Task    57 has       2796 integration points.
  Task    58 has       2819 integration points.
  Task    59 has       2881 integration points.
  Task    60 has       2897 integration points.
  Task    61 has       2828 integration points.
  Task    62 has       2831 integration points.
  Task    63 has       2891 integration points.
  Task    64 has       2834 integration points.
  Task    65 has       2824 integration points.
  Task    66 has       2803 integration points.
  Task    67 has       2782 integration points.
  Task    68 has       2903 integration points.
  Task    69 has       2810 integration points.
  Task    70 has       2831 integration points.
  Task    71 has       2780 integration points.
  Task    72 has       2833 integration points.
  Task    73 has       2840 integration points.
  Task    74 has       2832 integration points.
  Task    75 has       2794 integration points.
  Task    76 has       2836 integration points.
  Task    77 has       2781 integration points.
  Task    78 has       2783 integration points.
  Task    79 has       2856 integration points.
  Task    80 has       2820 integration points.
  Task    81 has       2826 integration points.
  Task    82 has       2791 integration points.
  Task    83 has       2838 integration points.
  Task    84 has       2779 integration points.
  Task    85 has       2902 integration points.
  Task    86 has       2821 integration points.
  Task    87 has       2830 integration points.
  Task    88 has       2832 integration points.
  Task    89 has       2795 integration points.
  Task    90 has       2782 integration points.
  Task    91 has       2855 integration points.
  Task    92 has       2833 integration points.
  Task    93 has       2784 integration points.
  Task    94 has       2829 integration points.
  Task    95 has       2834 integration points.
  Task    96 has       2901 integration points.
  Task    97 has       2885 integration points.
  Task    98 has       2828 integration points.
  Task    99 has       2830 integration points.
  Task   100 has       2823 integration points.
  Task   101 has       2831 integration points.
  Task   102 has       2892 integration points.
  Task   103 has       2818 integration points.
  Task   104 has       2785 integration points.
  Task   105 has       2882 integration points.
  Task   106 has       2785 integration points.
  Task   107 has       2780 integration points.
  Task   108 has       2782 integration points.
  Task   109 has       2789 integration points.
  Task   110 has       2783 integration points.
  Task   111 has       2783 integration points.
  Task   112 has       2779 integration points.
  Task   113 has       2790 integration points.
  Task   114 has       2799 integration points.
  Task   115 has       2785 integration points.
  Task   116 has       2899 integration points.
  Task   117 has       2813 integration points.
  Task   118 has       2899 integration points.
  Task   119 has       2901 integration points.
  Task   120 has       2783 integration points.
  Task   121 has       2780 integration points.
  Task   122 has       2786 integration points.
  Task   123 has       2788 integration points.
  Task   124 has       2837 integration points.
  Task   125 has       2823 integration points.
  Task   126 has       2788 integration points.
  Task   127 has       2784 integration points.
  Initializing partition tables, free-atom densities, potentials, etc. across the integration grid (initialize_grid_storage).
  | initialize_grid_storage: Actual outermost partition radius vs. multipole_radius_free
  | (-- VB: in principle, multipole_radius_free should be larger, hence this output)
  | Species        1: Confinement radius =              6.000000000000000 AA, multipole_radius_free =              6.029870734432609 AA.
  | Species        1: outer_partition_radius set to              6.029870734432609 AA .
  | The sparse table of interatomic distances needs       2155.76 kbyte instead of      4596.51 kbyte of memory.
  | Net number of integration points:   361560
  | of which are non-zero points    :   274873
  | Numerical average free-atom electrostatic potential    :     -2.83612732 eV
  Renormalizing the initial density to the exact electron count on the 3D integration grid.
  | Initial density: Formal number of electrons (from input files) :     120.0000000000
  | Integrated number of electrons on 3D grid     :     120.0006486228
  | Charge integration error                      :       0.0006486228
  | Normalization factor for density and gradient :       0.9999945948
  Renormalizing the free-atom superposition density to the exact electron count on the 3D integration grid.
  | Formal number of electrons (from input files) :     120.0000000000
  | Integrated number of electrons on 3D grid     :     120.0006486228
  | Charge integration error                      :       0.0006486228
  | Normalization factor for density and gradient :       0.9999945948
  Obtaining max. number of non-zero basis functions in each batch (get_n_compute_maxes).
  | Maximal number of non-zero basis functions:     1650 in task     0
  | Maximal number of non-zero basis functions:     1835 in task     1
  | Maximal number of non-zero basis functions:     1779 in task     2
  | Maximal number of non-zero basis functions:     1883 in task     3
  | Maximal number of non-zero basis functions:     1628 in task     4
  | Maximal number of non-zero basis functions:     1627 in task     5
  | Maximal number of non-zero basis functions:     1809 in task     6
  | Maximal number of non-zero basis functions:     1872 in task     7
  | Maximal number of non-zero basis functions:     1622 in task     8
  | Maximal number of non-zero basis functions:     1851 in task     9
  | Maximal number of non-zero basis functions:     1837 in task    10
  | Maximal number of non-zero basis functions:     1892 in task    11
  | Maximal number of non-zero basis functions:     1796 in task    12
  | Maximal number of non-zero basis functions:     1910 in task    13
  | Maximal number of non-zero basis functions:     1656 in task    14
  | Maximal number of non-zero basis functions:     1676 in task    15
  | Maximal number of non-zero basis functions:     2011 in task    16
  | Maximal number of non-zero basis functions:     1631 in task    17
  | Maximal number of non-zero basis functions:     1858 in task    18
  | Maximal number of non-zero basis functions:     1894 in task    19
  | Maximal number of non-zero basis functions:     1959 in task    20
  | Maximal number of non-zero basis functions:     1686 in task    21
  | Maximal number of non-zero basis functions:     1857 in task    22
  | Maximal number of non-zero basis functions:     2008 in task    23
  | Maximal number of non-zero basis functions:     1607 in task    24
  | Maximal number of non-zero basis functions:     1635 in task    25
  | Maximal number of non-zero basis functions:     1851 in task    26
  | Maximal number of non-zero basis functions:     1914 in task    27
  | Maximal number of non-zero basis functions:     1612 in task    28
  | Maximal number of non-zero basis functions:     1616 in task    29
  | Maximal number of non-zero basis functions:     1806 in task    30
  | Maximal number of non-zero basis functions:     1880 in task    31
  | Maximal number of non-zero basis functions:     1906 in task    32
  | Maximal number of non-zero basis functions:     1887 in task    33
  | Maximal number of non-zero basis functions:     1915 in task    34
  | Maximal number of non-zero basis functions:     1604 in task    35
  | Maximal number of non-zero basis functions:     1998 in task    36
  | Maximal number of non-zero basis functions:     2022 in task    37
  | Maximal number of non-zero basis functions:     1908 in task    38
  | Maximal number of non-zero basis functions:     2108 in task    39
  | Maximal number of non-zero basis functions:     1952 in task    40
  | Maximal number of non-zero basis functions:     2042 in task    41
  | Maximal number of non-zero basis functions:     1996 in task    42
  | Maximal number of non-zero basis functions:     1928 in task    43
  | Maximal number of non-zero basis functions:     1943 in task    44
  | Maximal number of non-zero basis functions:     2068 in task    45
  | Maximal number of non-zero basis functions:     1729 in task    46
  | Maximal number of non-zero basis functions:     1863 in task    47
  | Maximal number of non-zero basis functions:     2059 in task    48
  | Maximal number of non-zero basis functions:     1981 in task    49
  | Maximal number of non-zero basis functions:     1898 in task    50
  | Maximal number of non-zero basis functions:     1668 in task    51
  | Maximal number of non-zero basis functions:     2040 in task    52
  | Maximal number of non-zero basis functions:     2056 in task    53
  | Maximal number of non-zero basis functions:     1811 in task    54
  | Maximal number of non-zero basis functions:     1719 in task    55
  | Maximal number of non-zero basis functions:     1797 in task    56
  | Maximal number of non-zero basis functions:     1768 in task    57
  | Maximal number of non-zero basis functions:     1991 in task    58
  | Maximal number of non-zero basis functions:     1727 in task    59
  | Maximal number of non-zero basis functions:     2152 in task    60
  | Maximal number of non-zero basis functions:     1675 in task    61
  | Maximal number of non-zero basis functions:     1683 in task    62
  | Maximal number of non-zero basis functions:     1700 in task    63
  | Maximal number of non-zero basis functions:     1823 in task    64
  | Maximal number of non-zero basis functions:     1615 in task    65
  | Maximal number of non-zero basis functions:     1734 in task    66
  | Maximal number of non-zero basis functions:     2041 in task    67
  | Maximal number of non-zero basis functions:     1965 in task    68
  | Maximal number of non-zero basis functions:     2080 in task    69
  | Maximal number of non-zero basis functions:     1686 in task    70
  | Maximal number of non-zero basis functions:     2087 in task    71
  | Maximal number of non-zero basis functions:     1794 in task    72
  | Maximal number of non-zero basis functions:     2002 in task    73
  | Maximal number of non-zero basis functions:     1988 in task    74
  | Maximal number of non-zero basis functions:     1902 in task    75
  | Maximal number of non-zero basis functions:     2021 in task    76
  | Maximal number of non-zero basis functions:     1992 in task    77
  | Maximal number of non-zero basis functions:     2030 in task    78
  | Maximal number of non-zero basis functions:     1759 in task    79
  | Maximal number of non-zero basis functions:     1861 in task    80
  | Maximal number of non-zero basis functions:     1961 in task    81
  | Maximal number of non-zero basis functions:     1751 in task    82
  | Maximal number of non-zero basis functions:     1957 in task    83
  | Maximal number of non-zero basis functions:     2151 in task    84
  | Maximal number of non-zero basis functions:     1905 in task    85
  | Maximal number of non-zero basis functions:     1782 in task    86
  | Maximal number of non-zero basis functions:     1903 in task    87
  | Maximal number of non-zero basis functions:     1532 in task    88
  | Maximal number of non-zero basis functions:     1914 in task    89
  | Maximal number of non-zero basis functions:     1585 in task    90
  | Maximal number of non-zero basis functions:     2085 in task    91
  | Maximal number of non-zero basis functions:     1662 in task    92
  | Maximal number of non-zero basis functions:     1977 in task    93
  | Maximal number of non-zero basis functions:     1996 in task    94
  | Maximal number of non-zero basis functions:     1631 in task    95
  | Maximal number of non-zero basis functions:     1819 in task    96
  | Maximal number of non-zero basis functions:     1923 in task    97
  | Maximal number of non-zero basis functions:     1878 in task    98
  | Maximal number of non-zero basis functions:     1835 in task    99
  | Maximal number of non-zero basis functions:     2056 in task   100
  | Maximal number of non-zero basis functions:     2027 in task   101
  | Maximal number of non-zero basis functions:     1817 in task   102
  | Maximal number of non-zero basis functions:     1706 in task   103
  | Maximal number of non-zero basis functions:     2050 in task   104
  | Maximal number of non-zero basis functions:     2054 in task   105
  | Maximal number of non-zero basis functions:     2094 in task   106
  | Maximal number of non-zero basis functions:     2043 in task   107
  | Maximal number of non-zero basis functions:     1769 in task   108
  | Maximal number of non-zero basis functions:     1686 in task   109
  | Maximal number of non-zero basis functions:     1804 in task   110
  | Maximal number of non-zero basis functions:     2047 in task   111
  | Maximal number of non-zero basis functions:     1664 in task   112
  | Maximal number of non-zero basis functions:     1763 in task   113
  | Maximal number of non-zero basis functions:     1860 in task   114
  | Maximal number of non-zero basis functions:     1658 in task   115
  | Maximal number of non-zero basis functions:     2096 in task   116
  | Maximal number of non-zero basis functions:     2010 in task   117
  | Maximal number of non-zero basis functions:     2039 in task   118
  | Maximal number of non-zero basis functions:     2082 in task   119
  | Maximal number of non-zero basis functions:     1960 in task   120
  | Maximal number of non-zero basis functions:     2006 in task   121
  | Maximal number of non-zero basis functions:     2096 in task   122
  | Maximal number of non-zero basis functions:     2142 in task   123
  | Maximal number of non-zero basis functions:     2100 in task   124
  | Maximal number of non-zero basis functions:     2013 in task   125
  | Maximal number of non-zero basis functions:     2135 in task   126
  | Maximal number of non-zero basis functions:     2002 in task   127
  Allocating        1.428 MB for KS_eigenvector_complex
  Integrating Hamiltonian matrix: batch-based integration.
  Time summed over all CPUs for integration: real work       96.751 s, elapsed      107.837 s
  Integrating overlap matrix.
  Time summed over all CPUs for integration: real work       71.998 s, elapsed       80.087 s
  Decreasing sparse matrix size:
  | Tolerance:  0.1000E-12
  Hamiltonian matrix
  | Array has  1692518 nonzero elements out of  1832403 elements
  | Sparsity factor is 0.076
  Overlap matrix
  | Array has  1619017 nonzero elements out of  1832403 elements
  | Sparsity factor is 0.116
  New size of hamiltonian matrix:     1692533

  Updating Kohn-Sham eigenvalues and eigenvectors using ELSI and the (modified) LAPACK eigensolver.
  Singularity check in k-point 128, task 0 (analysis for other k-points/tasks may follow below):
  Overlap matrix is not singular
  | Lowest and highest eigenvalues :  0.8859E-04,  0.1038E+02
  Finished singularity check of overlap matrix
  | Time :     0.412 s
  Starting LAPACK eigensolver
  Finished Cholesky decomposition
  | Time :     0.057 s
  Finished transformation to standard eigenproblem
  | Time :     0.094 s
  Finished solving standard eigenproblem
  | Time :     0.353 s
  Finished back-transformation of eigenvectors
  | Time :     0.012 s

  Obtaining occupation numbers and chemical potential using ELSI.
  | Chemical potential (Fermi level):    -7.85464869 eV
  Writing Kohn-Sham eigenvalues.
  K-point:       1 at    0.000000    0.000000    0.000000 (in units of recip. lattice)

  State    Occupation    Eigenvalue [Ha]    Eigenvalue [eV]
      1       2.00000         -10.176779         -276.92425
      2       2.00000         -10.176762         -276.92379
      3       2.00000         -10.176760         -276.92373
      4       2.00000         -10.176709         -276.92234
      5       2.00000         -10.176708         -276.92231
      6       2.00000         -10.176630         -276.92020
      7       2.00000         -10.176629         -276.92016
      8       2.00000         -10.176544         -276.91785
      9       2.00000         -10.176542         -276.91778
     10       2.00000         -10.176496         -276.91655
     11       2.00000         -10.176208         -276.90871
     12       2.00000         -10.176163         -276.90747
     13       2.00000         -10.176160         -276.90741
     14       2.00000         -10.176075         -276.90510
     15       2.00000         -10.176074         -276.90506
     16       2.00000         -10.175996         -276.90293
     17       2.00000         -10.175995         -276.90290
     18       2.00000         -10.175943         -276.90151
     19       2.00000         -10.175941         -276.90144
     20       2.00000         -10.175923         -276.90096
     21       2.00000          -1.031933          -28.08032
     22       2.00000          -1.022663          -27.82808
     23       2.00000          -1.022658          -27.82793
     24       2.00000          -0.995413          -27.08655
     25       2.00000          -0.995410          -27.08649
     26       2.00000          -0.951780          -25.89924
     27       2.00000          -0.951775          -25.89912
     28       2.00000          -0.894592          -24.34308
     29       2.00000          -0.894589          -24.34301
     30       2.00000          -0.843250          -22.94599
     31       2.00000          -0.796608          -21.67681
     32       2.00000          -0.735953          -20.02629
     33       2.00000          -0.735949          -20.02620
     34       2.00000          -0.652491          -17.75519
     35       2.00000          -0.652488          -17.75511
     36       2.00000          -0.575789          -15.66802
     37       2.00000          -0.575786          -15.66795
     38       2.00000          -0.573846          -15.61515
     39       2.00000          -0.565536          -15.38901
     40       2.00000          -0.565526          -15.38874
     41       2.00000          -0.564921          -15.37228
     42       2.00000          -0.558068          -15.18580
     43       2.00000          -0.558061          -15.18561
     44       2.00000          -0.541838          -14.74417
     45       2.00000          -0.541832          -14.74401
     46       2.00000          -0.507342          -13.80549
     47       2.00000          -0.507334          -13.80527
     48       2.00000          -0.499837          -13.60125
     49       2.00000          -0.499834          -13.60118
     50       2.00000          -0.479197          -13.03961
     51       2.00000          -0.479191          -13.03946
     52       2.00000          -0.472774          -12.86483
     53       2.00000          -0.472763          -12.86455
     54       2.00000          -0.458205          -12.46840
     55       2.00000          -0.458204          -12.46836
     56       2.00000          -0.457062          -12.43729
     57       2.00000          -0.453778          -12.34793
     58       2.00000          -0.398930          -10.85543
     59       2.00000          -0.398920          -10.85518
     60       1.99994          -0.359816           -9.79109
     61       0.00074          -0.229005           -6.23154
     62       0.00000          -0.184537           -5.02152
     63       0.00000          -0.184530           -5.02130
     64       0.00000          -0.114811           -3.12415
     65       0.00000          -0.114809           -3.12410
     66       0.00000          -0.084980           -2.31241
     67       0.00000          -0.074528           -2.02800
     68       0.00000          -0.074501           -2.02726
     69       0.00000          -0.072991           -1.98619
     70       0.00000          -0.072983           -1.98598
     71       0.00000          -0.040553           -1.10351
     72       0.00000          -0.034421           -0.93665
     73       0.00000          -0.034420           -0.93662
     74       0.00000          -0.021835           -0.59415
     75       0.00000          -0.018505           -0.50355
     76       0.00000          -0.016114           -0.43850
     77       0.00000          -0.016113           -0.43846
     78       0.00000           0.007109            0.19344
     79       0.00000           0.007118            0.19368
     80       0.00000           0.010503            0.28579
     81       0.00000           0.010507            0.28591
     82       0.00000           0.013052            0.35516
     83       0.00000           0.013053            0.35520
     84       0.00000           0.029758            0.80976
     85       0.00000           0.029763            0.80989
     86       0.00000           0.042045            1.14409
     87       0.00000           0.043283            1.17779
     88       0.00000           0.043286            1.17787
     89       0.00000           0.051906            1.41243
     90       0.00000           0.052759            1.43565
     91       0.00000           0.052769            1.43591
     92       0.00000           0.077796            2.11695
     93       0.00000           0.077922            2.12036
     94       0.00000           0.085139            2.31675
     95       0.00000           0.085144            2.31687
     96       0.00000           0.093201            2.53613
     97       0.00000           0.093210            2.53636
     98       0.00000           0.123538            3.36165
     99       0.00000           0.130149            3.54154
    100       0.00000           0.179404            4.88184
    101       0.00000           0.179409            4.88198
    102       0.00000           0.189308            5.15132
    103       0.00000           0.189347            5.15238
    104       0.00000           0.200416            5.45359
    105       0.00000           0.200420            5.45370
    106       0.00000           0.208475            5.67290
    107       0.00000           0.208509            5.67382
    108       0.00000           0.216157            5.88194
    109       0.00000           0.216165            5.88215
    110       0.00000           0.217290            5.91277
    111       0.00000           0.233534            6.35478
    112       0.00000           0.233545            6.35508
    113       0.00000           0.280871            7.64288
    114       0.00000           0.280875            7.64301
[...]
     39       2.00000          -0.427470          -11.63204
     40       2.00000          -0.427468          -11.63201
     41       2.00000          -0.406748          -11.06819
     42       2.00000          -0.398159          -10.83446
     43       2.00000          -0.398157          -10.83441
     44       2.00000          -0.374933          -10.20245
     45       2.00000          -0.374929          -10.20233
     46       2.00000          -0.373619          -10.16668
     47       2.00000          -0.373614          -10.16656
     48       2.00000          -0.342762           -9.32703
     49       2.00000          -0.342760           -9.32698
     50       2.00000          -0.337662           -9.18825
     51       2.00000          -0.337656           -9.18808
     52       2.00000          -0.319832           -8.70308
     53       2.00000          -0.319824           -8.70285
     54       2.00000          -0.301204           -8.19617
     55       2.00000          -0.301200           -8.19606
     56       2.00000          -0.288705           -7.85605
     57       2.00000          -0.284423           -7.73954
     58       2.00000          -0.280174           -7.62392
     59       2.00000          -0.280165           -7.62367
     60       1.99996          -0.237469           -6.46187
     61       0.00239          -0.111640           -3.03788
     62       0.00000          -0.062957           -1.71316
     63       0.00000          -0.062947           -1.71286
     64       0.00000           0.012747            0.34686
     65       0.00000           0.013333            0.36282
     66       0.00000           0.013335            0.36286
     67       0.00000           0.038565            1.04941
     68       0.00000           0.038568            1.04949
     69       0.00000           0.051614            1.40449
     70       0.00000           0.051620            1.40464
     71       0.00000           0.055109            1.49960
     72       0.00000           0.064634            1.75878
     73       0.00000           0.064641            1.75898
     74       0.00000           0.066601            1.81230
     75       0.00000           0.066637            1.81329
     76       0.00000           0.070140            1.90861
     77       0.00000           0.074541            2.02837
     78       0.00000           0.074553            2.02870
     79       0.00000           0.099200            2.69938
     80       0.00000           0.099328            2.70285
     81       0.00000           0.099336            2.70306
     82       0.00000           0.107422            2.92310
     83       0.00000           0.107591            2.92769
     84       0.00000           0.117572            3.19930
     85       0.00000           0.117580            3.19952
     86       0.00000           0.129083            3.51252
     87       0.00000           0.129087            3.51263
     88       0.00000           0.135968            3.69987
     89       0.00000           0.144201            3.92390
     90       0.00000           0.159089            4.32903
     91       0.00000           0.159091            4.32909
     92       0.00000           0.166877            4.54095
     93       0.00000           0.169788            4.62018
     94       0.00000           0.169801            4.62053
     95       0.00000           0.188381            5.12611
     96       0.00000           0.188386            5.12625
     97       0.00000           0.198954            5.41383
     98       0.00000           0.213079            5.79817
     99       0.00000           0.213091            5.79851
    100       0.00000           0.236274            6.42935
    101       0.00000           0.236327            6.43079
    102       0.00000           0.255790            6.96040
    103       0.00000           0.255798            6.96063
    104       0.00000           0.283708            7.72008
    105       0.00000           0.283726            7.72058
    106       0.00000           0.367393            9.99727
    107       0.00000           0.367398            9.99742
    108       0.00000           0.374940           10.20263
    109       0.00000           0.374978           10.20366
    110       0.00000           0.375794           10.22588
    111       0.00000           0.375801           10.22607
    112       0.00000           0.379709           10.33241
    113       0.00000           0.379750           10.33351
    114       0.00000           0.387048           10.53212
    115       0.00000           0.393176           10.69885
    116       0.00000           0.393200           10.69951
    117       0.00000           0.432321           11.76405
    118       0.00000           0.432338           11.76450
    119       0.00000           0.475194           12.93068
    120       0.00000           0.475215           12.93126

  What follows are estimated values for band gap, HOMO, LUMO, etc.
  | They are estimated on a discrete k-point grid and not necessarily exact.
  | For converged numbers, create a DOS and/or band structure plot on a denser k-grid.

  Highest occupied state (VBM) at     -4.51143070 eV (relative to internal zero)
  | Occupation number:      1.02229866
  | K-point:     121 at    0.000000    0.000000    0.320000 (in units of recip. lattice)

  Lowest unoccupied state (CBM) at    -4.49641633 eV (relative to internal zero)
  | Occupation number:      0.99738702
  | K-point:     212 at    0.000000    0.000000    0.684000 (in units of recip. lattice)

  ESTIMATED overall HOMO-LUMO gap:      0.01501437 eV between HOMO at k-point 121 and LUMO at k-point 212
  | This appears to be an indirect band gap.
  | Smallest direct gap :      0.06362712 eV for k_point 121 at    0.000000    0.000000    0.320000 (in units of recip. lattice)
  However, this system has fractional occupation numbers. Since we use a finite k-point grid,
  this material is metallic within the approximate finite broadening function (occupation_type)
  applied to determine the occupation numbers.
  | Chemical Potential                          :    -4.49799101 eV

  Self-consistency cycle converged.


------------------------------------------------------------
  End self-consistency iteration #    23       :  max(cpu_time)    wall_clock(cpu1)
  | Time for this iteration                    :       18.408 s          18.529 s
  | Charge density & force component update    :       14.333 s          14.429 s
  | Density mixing                             :        0.002 s           0.002 s
  | Hartree multipole update                   :        0.014 s           0.014 s
  | Hartree multipole summation                :        1.110 s           1.114 s
  | Hartree pot. SCF incomplete forces         :        0.767 s           0.770 s
  | Integration                                :        0.920 s           0.926 s
  | Solution of K.-S. eqns.                    :        1.260 s           1.268 s
  | Total energy evaluation                    :        0.001 s           0.001 s

  Partial memory accounting:
  | Current value for overall tracked memory usage:
  |   Minimum:       33.714 MB (on task   0)
  |   Maximum:       35.142 MB (on task   1)
  |   Average:       35.086 MB
  | Peak value for overall tracked memory usage:
  |   Minimum:       99.802 MB (on task  88 after allocating d_wave)
  |   Maximum:      136.149 MB (on task  60 after allocating d_wave)
  |   Average:      119.386 MB
  | Largest tracked array allocation so far:
  |   Minimum:       17.906 MB (hamiltonian_shell on task  88)
  |   Maximum:       35.333 MB (hamiltonian_shell on task  60)
  |   Average:       27.044 MB
  Note:  These values currently only include a subset of arrays which are explicitly tracked.
  The "true" memory usage will be greater.
------------------------------------------------------------
  Removing unitary transformations (pure translations, rotations) from forces on atoms.
  Atomic forces before filtering:
  | Net force on center of mass :   0.268860E-06 -0.214731E-06  0.121273E-07 eV/A
  Atomic forces after filtering:
  | Net force on center of mass :  -0.544452E-20  0.174225E-18  0.191647E-17 eV/A

  Energy and forces in a compact form:
  | Total energy uncorrected      :         -0.207419221022546E+05 eV
  | Total energy corrected        :         -0.207420061872903E+05 eV  <-- do not rely on this value for anything but (periodic) metals
  | Electronic free energy        :         -0.207420902723261E+05 eV
  Total atomic forces (unitary forces cleaned) [eV/Ang]:
  |    1         -0.235680176277324E-05         -0.549761279682152E-03          0.245736722679254E-03
  |    2          0.322022946295346E-04         -0.124090687161984E-03          0.155740571891604E-02
  |    3         -0.923668872403496E-03         -0.813079810149460E-04          0.249152545640931E-02
  |    4         -0.637909766954608E-03          0.989848044388967E-04          0.301221445465818E-02
  |    5          0.247170019126531E-04         -0.175493108009948E-03          0.264501442761643E-03
  |    6         -0.125322140674664E-03          0.412870408563920E-03          0.738957078990687E-03
  |    7         -0.349535674123120E-03          0.814223911535301E-04         -0.260674569132241E-02
  |    8          0.976465999511837E-03          0.142700985701512E-03         -0.223248810834277E-02
  |    9          0.112990143683362E-02         -0.457789685883190E-03         -0.234571031637955E-02
  |   10          0.106328362065895E-04         -0.187962079297776E-03         -0.136523740136689E-02
  |   11          0.185027145822551E-03          0.358016778949346E-03         -0.827953940877931E-03
  |   12         -0.285523945562132E-04         -0.559596280998909E-04         -0.200991768934607E-02
  |   13          0.149222562306636E-02         -0.226906186929199E-03         -0.226974097053310E-02
  |   14          0.612759836932098E-04         -0.179091422921060E-03         -0.299051208797944E-02
  |   15         -0.151353272782990E-03         -0.276475544484400E-03          0.366972443310306E-03
  |   16         -0.212836666828963E-03         -0.150989796845302E-03         -0.596267774610431E-04
  |   17          0.460528140268703E-03          0.427379984678933E-03          0.269227030892087E-02
  |   18         -0.142033208707680E-02          0.199917839789220E-03          0.250795374946487E-02
  |   19         -0.478408838095430E-03          0.266039206635465E-03          0.197008385953128E-02
  |   20         -0.426999466859980E-04          0.478495000419026E-03          0.860311747966773E-03

  Calculating total density of states ...
  | Chemical potential is  -4.497991 eV.
  | writing DOS (shifted by electron chemical potential) to file KS_DOS_total_tetrahedron.dat
  | writing DOS (raw data) to file KS_DOS_total_raw_tetrahedron.dat
  ------------------------------------ 
  Start decomposition of the XC Energy 
  ------------------------------------ 
  X and C from original XC functional choice 
  Hartree-Fock Energy :          0.000000000 Ha              0.000000000 eV
  X Energy            :       -104.405059279 Ha          -2841.006211783 eV
  C Energy            :         -4.269406543 Ha           -116.176463029 eV
  Total XC Energy     :       -108.674465822 Ha          -2957.182674812 eV
  ------------------------------------ 
  LDA X and C from self-consistent density 
  X Energy LDA        :        -94.214205112 Ha          -2563.698960676 eV
  C Energy LDA        :         -7.953513331 Ha           -216.426109375 eV
  ------------------------------------ 
  End decomposition of the XC Energy 
  ------------------------------------ 

------------------------------------------------------------

  -------------------------------------------------------------------
  Writing the requested band structure output (LAPACK version):
  -------------------------------------------------------------------

  Integrating Hamiltonian matrix: batch-based integration.
  Time summed over all CPUs for integration: real work       96.265 s, elapsed      107.391 s

  Treating all  101 k-points in band plot segment #   1:


  "Band gap" along reciprocal space direction number:    1
  | Lowest unoccupied state:      -4.44780367 eV
  | Highest occupied state :      -4.50848685 eV
  | Energy difference      :       0.06068318 eV

  "Band gap" of total set of bands:
  | Lowest unoccupied state:      -4.44780367 eV
  | Highest occupied state :      -4.50848685 eV
  | Energy difference      :       0.06068318 eV


  Band Structure                                          :  max(cpu_time) wall_clock(cpu1)
  | Total Time                                            :          1.976            2.117
------------------------------------------------------------

------------------------------------------------------------------------------
  Final output of selected total energy values:

  The following output summarizes some interesting total energy values
  at the end of a run (AFTER all relaxation, molecular dynamics, etc.).

  | Total energy of the DFT / Hartree-Fock s.c.f. calculation      :         -20741.922102255 eV
  | Final zero-broadening corrected energy (caution - metals only) :         -20742.006187290 eV
  | For reference only, the value of 1 Hartree used in FHI-aims is :             27.211384500 eV
  | For reference only, the overall average (free atom contribution
  | + realspace contribution) of the electrostatic potential after
  | s.c.f. convergence is                                          :             -2.562237868 eV

  Before relying on these values, please be sure to understand exactly which
  total energy value is referred to by a given number. Different objects may
  all carry the same name 'total energy'. Definitions:

  Total energy of the DFT / Hartree-Fock s.c.f. calculation:
  | Note that this energy does not include ANY quantities calculated after the
  | s.c.f. cycle, in particular not ANY RPA, MP2, etc. many-body perturbation terms.

  Final zero-broadening corrected energy:
  | For metallic systems only, a broadening of the occupation numbers at the Fermi
  | level can be extrapolated back to zero broadening by an electron-gas inspired
  | formula. For all systems that are not real metals, this value can be
  | meaningless and should be avoided.

------------------------------------------------------------------------------
  Methods described in the following list of references were used in this FHI-aims run.
  If you publish the results, please make sure to cite these reference if they apply.
  FHI-aims is an academic code, and for our developers (often, Ph.D. students
  and postdocs), scientific credit in the community is essential.
  Thank you for helping us!

  For any use of FHI-aims, please cite:

    Volker Blum, Ralf Gehrke, Felix Hanke, Paula Havu, Ville Havu,
    Xinguo Ren, Karsten Reuter, and Matthias Scheffler
    'Ab initio molecular simulations with numeric atom-centered orbitals'
    Computer Physics Communications 180, 2175-2196 (2009)
    http://dx.doi.org/10.1016/j.cpc.2009.06.022


  The provided symmetry information was generated with SPGlib:

    Atsushi Togo, Yusuke Seto, Dimitar Pashov
    SPGlib 1.7.3 obtained from http://spglib.sourceforge.net
    Copyright (C) 2008 Atsushi Togo


  The ELSI infrastructure was used in your run to solve the Kohn-Sham electronic structure.
  Please check out http://elsi-interchange.org to learn more.
  If scalability is important for your project, please acknowledge ELSI by citing:

    V. W-z. Yu, F. Corsetti, A. Garcia, W. P. Huhn, M. Jacquelin, W. Jia,
    B. Lange, L. Lin, J. Lu, W. Mi, A. Seifitokaldani, A. Vazquez-Mayagoitia,
    C. Yang, H. Yang, and V. Blum
    'ELSI: A unified software interface for Kohn-Sham electronic structure solvers'
    Computer Physics Communications 222, 267-285 (2018).
    http://dx.doi.org/10.1016/j.cpc.2017.09.007


  For the real-space grid partitioning and parallelization used in this calculation, please cite:

    Ville Havu, Volker Blum, Paula Havu, and Matthias Scheffler,
    'Efficient O(N) integration for all-electron electronic structure calculation'
    'using numerically tabulated basis functions'
    Journal of Computational Physics 228, 8367-8379 (2009).
    http://dx.doi.org/10.1016/j.jcp.2009.08.008


  The high-level electronic structure method used in your calculation
  employed our efficient localized resolution of identity for the Coulomb operator.
  Some calculations, especially large-scale hybrid density functional theory,
  are only possible thanks to this development. For this feature, please cite:

    Arvid Ihrig, Juergen Wieferink, Igor Ying Zhang, Matti Ropo, Xinguo Ren,
    Patrick Rinke, Matthias Scheffler, and Volker Blum,
    'Accurate localized resolution of identity approach for linear-scaling
    hybrid density functionals and for many-body perturbation theory'
    New Journal of Physics 117, 093020 (2015).
    http://dx.doi.org/10.1088/1367-2630/17/9/093020

  Of course, there are many other important community references, e.g., those cited in the
  above references. Our list is limited to references that describe implementations in the
  FHI-aims code. The reason is purely practical (length of this list) - please credit others as well.

------------------------------------------------------------
          Leaving FHI-aims.
          Date     :  20220323, Time     :  134012.289

          Computational steps:
          | Number of self-consistency cycles          :           23
          | Number of SCF (re)initializations          :            1

          Detailed time accounting                     :  max(cpu_time)    wall_clock(cpu1)
          | Total time                                 :      141.606 s         142.561 s
          | Preparation time                           :        0.111 s           0.112 s
          | Boundary condition initalization           :        0.124 s           0.128 s
          | Grid partitioning                          :        0.323 s           0.326 s
          | Preloading free-atom quantities on grid    :        0.228 s           0.231 s
          | Free-atom superposition energy             :        0.021 s           0.021 s
          | Total time for integrations                :       22.828 s          22.987 s
          | Total time for solution of K.-S. equations :       31.104 s          31.308 s
          | Total time for density & force components  :       70.272 s          70.690 s
          | Total time for mixing & preconditioning    :        2.919 s           2.930 s
          | Total time for Hartree multipole update    :        0.336 s           0.340 s
          | Total time for Hartree multipole sum       :        9.122 s           9.155 s
          | Total time for total energy evaluation     :        0.016 s           0.017 s
          | Total time NSC force correction            :        1.533 s           1.540 s
          | Total time for band structures, DOS        :        1.997 s           2.364 s

          Partial memory accounting:
          | Residual value for overall tracked memory usage across tasks:     0.000000 MB (should be 0.000000 MB)
          | Peak values for overall tracked memory usage:
          |   Minimum:       99.802 MB (on task  88 after allocating d_wave)
          |   Maximum:      136.149 MB (on task  60 after allocating d_wave)
          |   Average:      119.386 MB
          | Largest tracked array allocation:
          |   Minimum:       17.906 MB (hamiltonian_shell on task  88)
          |   Maximum:       35.333 MB (hamiltonian_shell on task  60)
          |   Average:       27.044 MB
          Note:  These values currently only include a subset of arrays which are explicitly tracked.
          The "true" memory usage will be greater.

          Have a nice day.
------------------------------------------------------------
