------------------------------------------------------------
          Invoking FHI-aims ...

          When using FHI-aims, please cite the following reference:

            Volker Blum, Ralf Gehrke, Felix Hanke, Paula Havu,
            Ville Havu, Xinguo Ren, Karsten Reuter, and Matthias Scheffler,
            'Ab Initio Molecular Simulations with Numeric Atom-Centered Orbitals',
            Computer Physics Communications 180, 2175-2196 (2009)

          In addition, many other developments in FHI-aims are likely important for
          your particular application. A partial list of references is given at the end of
          this file. Thank you for giving credit to the authors of these developments.

          For any questions about FHI-aims, please visit our slack channel at

            https://fhi-aims.slack.com

          and our main development and support site at

            https://aims-git.rz-berlin.mpg.de .

          The latter site, in particular, has a wiki to collect information, as well
          as an issue tracker to log discussions, suggest improvements, and report issues
          or bugs. https://aims-git.rz-berlin.mpg.de is also the main development site
          of the project and all new and updated code versions can be obtained there.
          Please send an email to aims-coordinators@fhi-berlin.mpg.de and we will add
          you to these sites. They are for you and everyone is welcome there.

------------------------------------------------------------



  Date     :  20220323, Time     :  131036.696
  Time zero on CPU 1             :   0.143728000000000E+01  s.
  Internal wall clock time zero  :           417273036.696  s.

  FHI-aims created a unique identifier for this run for later identification
  aims_uuid : 4DC24334-59A0-4D16-A46F-7E04F71AD9C1

  Build configuration of the current instance of FHI-aims
  -------------------------------------------------------
  FHI-aims version      : 210716.2
  Commit number         : GITDIR-NOTFOUND
  CMake host system     : Linux-4.18.0-305.12.1.el8_4.x86_64
  CMake version         : 3.21.1
  Fortran compiler      : /sulis/institutions/warwick/easybuild/software/OpenMPI/4.1.1-GCC-11.2.0/bin/mpifort (GNU) version 11.2.0
  Fortran compiler flags: -O3 -march=native -mno-recip -I$(EBROOTHDF5)/include -fallow-argument-mismatch -ffree-line-length-none -O3 -DNDEBUG -O3
  C compiler            : /sulis/institutions/warwick/easybuild/software/GCCcore/11.2.0/bin/gcc (GNU) version 11.2.0
  C compiler flags      : -O3 -march=native -mno-recip -std=gnu99 -O3 -DNDEBUG
  ELPA2 kernel          : AVX2
  Using MPI
  Using ScaLAPACK
  Using LibXC
  Using i-PI
  Using HDF5
  Using RLSY
  Using PLUMED
  Linking against: /sulis/institutions/warwick/easybuild/software/PLUMED/2.7.3-foss-2021b/lib/libplumed.so
                   /sulis/institutions/warwick/easybuild/software/HDF5/1.12.1-gompi-2021b/lib/libhdf5_fortran.so
                   /sulis/institutions/warwick/easybuild/software/ScaLAPACK/2.1.0-gompi-2021b-fb/lib/libscalapack.so
                   /sulis/institutions/warwick/easybuild/software/FlexiBLAS/3.0.4-GCC-11.2.0/lib/libflexiblas.so

  Using      128 parallel tasks.
  Task        0 on host node009.sulis.hpc reporting.
  Task        1 on host node009.sulis.hpc reporting.
  Task        2 on host node009.sulis.hpc reporting.
  Task        3 on host node009.sulis.hpc reporting.
  Task        4 on host node009.sulis.hpc reporting.
  Task        5 on host node009.sulis.hpc reporting.
  Task        6 on host node009.sulis.hpc reporting.
  Task        7 on host node009.sulis.hpc reporting.
  Task        8 on host node009.sulis.hpc reporting.
  Task        9 on host node009.sulis.hpc reporting.
  Task       10 on host node009.sulis.hpc reporting.
  Task       11 on host node009.sulis.hpc reporting.
  Task       12 on host node009.sulis.hpc reporting.
  Task       13 on host node009.sulis.hpc reporting.
  Task       14 on host node009.sulis.hpc reporting.
  Task       15 on host node009.sulis.hpc reporting.
  Task       16 on host node009.sulis.hpc reporting.
  Task       17 on host node009.sulis.hpc reporting.
  Task       18 on host node009.sulis.hpc reporting.
  Task       19 on host node009.sulis.hpc reporting.
  Task       20 on host node009.sulis.hpc reporting.
  Task       21 on host node009.sulis.hpc reporting.
  Task       22 on host node009.sulis.hpc reporting.
  Task       23 on host node009.sulis.hpc reporting.
  Task       24 on host node009.sulis.hpc reporting.
  Task       25 on host node009.sulis.hpc reporting.
  Task       26 on host node009.sulis.hpc reporting.
  Task       27 on host node009.sulis.hpc reporting.
  Task       28 on host node009.sulis.hpc reporting.
  Task       29 on host node009.sulis.hpc reporting.
  Task       30 on host node009.sulis.hpc reporting.
  Task       31 on host node009.sulis.hpc reporting.
  Task       32 on host node009.sulis.hpc reporting.
  Task       33 on host node009.sulis.hpc reporting.
  Task       34 on host node009.sulis.hpc reporting.
  Task       35 on host node009.sulis.hpc reporting.
  Task       36 on host node009.sulis.hpc reporting.
  Task       37 on host node009.sulis.hpc reporting.
  Task       38 on host node009.sulis.hpc reporting.
  Task       39 on host node009.sulis.hpc reporting.
  Task       40 on host node009.sulis.hpc reporting.
  Task       41 on host node009.sulis.hpc reporting.
  Task       42 on host node009.sulis.hpc reporting.
  Task       43 on host node009.sulis.hpc reporting.
  Task       44 on host node009.sulis.hpc reporting.
  Task       45 on host node009.sulis.hpc reporting.
  Task       46 on host node009.sulis.hpc reporting.
  Task       47 on host node009.sulis.hpc reporting.
  Task       48 on host node009.sulis.hpc reporting.
  Task       49 on host node009.sulis.hpc reporting.
  Task       50 on host node009.sulis.hpc reporting.
  Task       51 on host node009.sulis.hpc reporting.
  Task       52 on host node009.sulis.hpc reporting.
  Task       53 on host node009.sulis.hpc reporting.
  Task       54 on host node009.sulis.hpc reporting.
  Task       55 on host node009.sulis.hpc reporting.
  Task       56 on host node009.sulis.hpc reporting.
  Task       57 on host node009.sulis.hpc reporting.
  Task       58 on host node009.sulis.hpc reporting.
  Task       59 on host node009.sulis.hpc reporting.
  Task       60 on host node009.sulis.hpc reporting.
  Task       61 on host node009.sulis.hpc reporting.
  Task       62 on host node009.sulis.hpc reporting.
  Task       63 on host node009.sulis.hpc reporting.
  Task       64 on host node009.sulis.hpc reporting.
  Task       65 on host node009.sulis.hpc reporting.
  Task       66 on host node009.sulis.hpc reporting.
  Task       67 on host node009.sulis.hpc reporting.
  Task       68 on host node009.sulis.hpc reporting.
  Task       69 on host node009.sulis.hpc reporting.
  Task       70 on host node009.sulis.hpc reporting.
  Task       71 on host node009.sulis.hpc reporting.
  Task       72 on host node009.sulis.hpc reporting.
  Task       73 on host node009.sulis.hpc reporting.
  Task       74 on host node009.sulis.hpc reporting.
  Task       75 on host node009.sulis.hpc reporting.
  Task       76 on host node009.sulis.hpc reporting.
  Task       77 on host node009.sulis.hpc reporting.
  Task       78 on host node009.sulis.hpc reporting.
  Task       79 on host node009.sulis.hpc reporting.
  Task       80 on host node009.sulis.hpc reporting.
  Task       81 on host node009.sulis.hpc reporting.
  Task       82 on host node009.sulis.hpc reporting.
  Task       83 on host node009.sulis.hpc reporting.
  Task       84 on host node009.sulis.hpc reporting.
  Task       85 on host node009.sulis.hpc reporting.
  Task       86 on host node009.sulis.hpc reporting.
  Task       87 on host node009.sulis.hpc reporting.
  Task       88 on host node009.sulis.hpc reporting.
  Task       89 on host node009.sulis.hpc reporting.
  Task       90 on host node009.sulis.hpc reporting.
  Task       91 on host node009.sulis.hpc reporting.
  Task       92 on host node009.sulis.hpc reporting.
  Task       93 on host node009.sulis.hpc reporting.
  Task       94 on host node009.sulis.hpc reporting.
  Task       95 on host node009.sulis.hpc reporting.
  Task       96 on host node009.sulis.hpc reporting.
  Task       97 on host node009.sulis.hpc reporting.
  Task       98 on host node009.sulis.hpc reporting.
  Task       99 on host node009.sulis.hpc reporting.
  Task      100 on host node009.sulis.hpc reporting.
  Task      101 on host node009.sulis.hpc reporting.
  Task      102 on host node009.sulis.hpc reporting.
  Task      103 on host node009.sulis.hpc reporting.
  Task      104 on host node009.sulis.hpc reporting.
  Task      105 on host node009.sulis.hpc reporting.
  Task      106 on host node009.sulis.hpc reporting.
  Task      107 on host node009.sulis.hpc reporting.
  Task      108 on host node009.sulis.hpc reporting.
  Task      109 on host node009.sulis.hpc reporting.
  Task      110 on host node009.sulis.hpc reporting.
  Task      111 on host node009.sulis.hpc reporting.
  Task      112 on host node009.sulis.hpc reporting.
  Task      113 on host node009.sulis.hpc reporting.
  Task      114 on host node009.sulis.hpc reporting.
  Task      115 on host node009.sulis.hpc reporting.
  Task      116 on host node009.sulis.hpc reporting.
  Task      117 on host node009.sulis.hpc reporting.
  Task      118 on host node009.sulis.hpc reporting.
  Task      119 on host node009.sulis.hpc reporting.
  Task      120 on host node009.sulis.hpc reporting.
  Task      121 on host node009.sulis.hpc reporting.
  Task      122 on host node009.sulis.hpc reporting.
  Task      123 on host node009.sulis.hpc reporting.
  Task      124 on host node009.sulis.hpc reporting.
  Task      125 on host node009.sulis.hpc reporting.
  Task      126 on host node009.sulis.hpc reporting.
  Task      127 on host node009.sulis.hpc reporting.

  Performing system and environment tests:
  | Environment variable OMP_NUM_THREADS correctly set to 1.
  | Checking for ScaLAPACK...
  | Testing pdtran()...
  | All pdtran() tests passed.

  Obtaining array dimensions for all initial allocations:
  
  -----------------------------------------------------------------------
  Parsing control.in (first pass over file, find array dimensions only).
  The contents of control.in will be repeated verbatim below
  unless switched off by setting 'verbatim_writeout .false.' .
  in the first line of control.in .
  -----------------------------------------------------------------------
  
  #===============================================================================
  # FHI-aims file: ./control.in
  # Created using the Atomic Simulation Environment (ASE)
  # Wed Mar 23 11:52:14 2022
  #===============================================================================
  xc                                 blyp
  k_grid                             1 1 500
  occupation_type                    gaussian 0.68
  spin                               none
  default_initial_moment             0
  KS_method                          parallel
  RI_method                          LVL_fast
  preconditioner                     kerker 2.0
  sc_accuracy_rho                    1e-06
  sc_accuracy_forces                 0.0001
  output band                        0.0 0.0 0.0  0.0 0.0 0.5  101  Gamma Z
  output dos_tetrahedron             -25.0 10.0 7001
  exx_band_structure_version         1
  #===============================================================================
  
  ################################################################################
  #
  #  FHI-aims code project
  #  Volker Blum, Fritz Haber Institute Berlin, 2009
  #
  #  Suggested "tight" defaults for Be atom (to be pasted into control.in file)
  #
  ################################################################################
    species        Be
  #     global species definitions
      nucleus             4
      mass                9.012182
  #
      l_hartree           6
  #
      cut_pot             4.0  2.0  1.0
      basis_dep_cutoff    1e-4
  #
      radial_base         31 7.0
      radial_multiplier   2
      angular_grids       specified
        division   0.4283  110
        division   0.4792  194
        division   0.5061  302
        division   0.7227  434
  #      division   0.8724  590
  #      division   0.9555  770
  #      division   2.9770  974
  #      outer_grid   974
        outer_grid  434
  ################################################################################
  #
  #  Definition of "minimal" basis
  #
  ################################################################################
  #     valence basis states
      valence      2  s   2.
  #     ion occupancy
      ion_occ      2  s   1.
  ################################################################################
  #
  #  Suggested additional basis functions. For production calculations,
  #  uncomment them one after another (the most important basis functions are
  #  listed first).
  #
  #  Constructed for dimers: 1.75 A, 2.0 A, 2.375 A, 3.00 A, 4.00 A
  #
  ################################################################################
  #  "First tier" - improvements: -677.26 meV to -34.75 meV
       ionic 2 p auto
       hydro 3 s 2.9
       hydro 3 d 3.5
  #  "Second tier" - improvements: -16.34 meV to -1.26 meV
       hydro 3 p 3.1
       hydro 4 d 4.7
       hydro 3 p 2.4
       hydro 4 f 7.6
       hydro 2 s 2.9
  #  "Third tier" - improvements: -0.27 meV to -0.05 meV
  #     hydro 2 p 8.2
  #     hydro 5 g 10.8
  #     hydro 4 f 7
  #     hydro 3 s 2.3
  #     hydro 4 d 3.8
  ################################################################################
  #
  # For methods that use the localized form of the "resolution of identity" for
  # the two-electron Coulomb operator (RI_method LVL), particularly Hartree-Fock and
  # hybrid density functional calculations, the highest accuracy can be obtained by
  # uncommenting the line beginning with "for_aux"  below, thus adding an extra g radial
  # function to the construction of the product basis set for the expansion.
  # See Ref. New J. Phys. 17, 093020 (2015) for more information, particularly Figs. 1 and 6.
  #
  ################################################################################
  #
  # for_aux hydro 5 g 6.0
  ################################################################################
  #
  #  FHI-aims code project
  #  Volker Blum, Fritz Haber Institute Berlin, 2009
  #
  #  Suggested "tight" defaults for C atom (to be pasted into control.in file)
  #
  ################################################################################
    species        C
  #     global species definitions
      nucleus             6
      mass                12.0107
  #
      l_hartree           6
  #
      cut_pot             4.0  2.0  1.0
      basis_dep_cutoff    1e-4
  #
      radial_base         34 7.0
      radial_multiplier   2
      angular_grids specified
        division   0.2187   50
        division   0.4416  110
        division   0.6335  194
        division   0.7727  302
        division   0.8772  434
  #      division   0.9334  590
  #      division   0.9924  770
  #      division   1.0230  974
  #      division   1.5020 1202
  #     outer_grid  974
        outer_grid  434
  ################################################################################
  #
  #  Definition of "minimal" basis
  #
  ################################################################################
  #     valence basis states
      valence      2  s   2.
      valence      2  p   2.
  #     ion occupancy
      ion_occ      2  s   1.
      ion_occ      2  p   1.
  ################################################################################
  #
  #  Suggested additional basis functions. For production calculations,
  #  uncomment them one after another (the most important basis functions are
  #  listed first).
  #
  #  Constructed for dimers: 1.0 A, 1.25 A, 1.5 A, 2.0 A, 3.0 A
  #
  ################################################################################
  #  "First tier" - improvements: -1214.57 meV to -155.61 meV
       hydro 2 p 1.7
       hydro 3 d 6
       hydro 2 s 4.9
  #  "Second tier" - improvements: -67.75 meV to -5.23 meV
       hydro 4 f 9.8
       hydro 3 p 5.2
       hydro 3 s 4.3
       hydro 5 g 14.4
       hydro 3 d 6.2
  #  "Third tier" - improvements: -2.43 meV to -0.60 meV
  #     hydro 2 p 5.6
  #     hydro 2 s 1.4
  #     hydro 3 d 4.9
  #     hydro 4 f 11.2
  #  "Fourth tier" - improvements: -0.39 meV to -0.18 meV
  #     hydro 2 p 2.1
  #     hydro 5 g 16.4
  #     hydro 4 d 13.2
  #     hydro 3 s 13.6
  #     hydro 4 f 17.6
  #  Further basis functions - improvements: -0.08 meV and below
  #     hydro 3 s 2
  #     hydro 3 p 6
  #     hydro 4 d 20
  ################################################################################
  #
  # For methods that use the localized form of the "resolution of identity" for
  # the two-electron Coulomb operator (RI_method LVL), particularly Hartree-Fock and
  # hybrid density functional calculations, the highest accuracy can be obtained by
  # uncommenting the line beginning with "for_aux"  below, thus adding an extra g radial
  # function to the construction of the product basis set for the expansion.
  # See Ref. New J. Phys. 17, 093020 (2015) for more information, particularly Figs. 1 and 6.
  #
  ################################################################################
  #
  # for_aux hydro 5 g 6.0
  
  -----------------------------------------------------------------------
  Completed first pass over input file control.in .
  -----------------------------------------------------------------------
  
  
  -----------------------------------------------------------------------
  Parsing geometry.in (first pass over file, find array dimensions only).
  The contents of geometry.in will be repeated verbatim below
  unless switched off by setting 'verbatim_writeout .false.' .
  in the first line of geometry.in .
  -----------------------------------------------------------------------
  
  #
  # This is the geometry file that corresponds to the current relaxation step.
  # If you do not want this file to be written, set the "write_restart_geometry" flag to .false.
  #  aims_uuid : 5E50A6BF-445B-428B-AD82-F568C8789586
  #
  lattice_vector     19.10993014     -0.78591887     -0.00473360
  lattice_vector      0.78539857     18.50203128     -0.00461198
  lattice_vector     -0.00510228      0.00024008      2.46738429
  atom_frac       0.45717869      0.54060161      0.39924267 Be
  atom_frac       0.63661500      0.51702580      0.50297517 C
  atom_frac       0.58915217      0.41261618      0.00190923 C
  atom_frac       0.49118604      0.35713855      0.50010897 C
  atom_frac       0.38031089      0.37161276     -0.00187993 C
  atom_frac       0.29883798      0.45077408      0.49689766 C
  atom_frac       0.27778614      0.56413992     -0.00335484 C
  atom_frac       0.32540304      0.66853174      0.49775423 C
  atom_frac       0.42325476      0.72411880     -0.00048381 C
  atom_frac       0.53415997      0.70948728      0.50149560 C
  atom_frac       0.61569539      0.63046858      0.00276822 C
  atom_frac       0.62803969      0.47891310      0.00271597 C
  atom_frac       0.56042253      0.38712946      0.50138430 C
  atom_frac       0.45342970      0.35382506     -0.00061261 C
  atom_frac       0.34793027      0.39198872      0.49765759 C
  atom_frac       0.28407936      0.48684287     -0.00338233 C
  atom_frac       0.28650534      0.60221638      0.49695113 C
  atom_frac       0.35403501      0.69413337     -0.00176793 C
  atom_frac       0.46102357      0.72728043      0.50023755 C
  atom_frac       0.56661738      0.68923945      0.00200557 C
  atom_frac       0.63031851      0.59433982      0.50300358 C
  #
  # What follows is the current estimated Hessian matrix constructed by the BFGS algorithm.
  # This is NOT the true Hessian matrix of the system.
  # If you do not want this information here, switch it off using the "hessian_to_restart_geometry" keyword.
  #
  trust_radius             0.0455237400
  hessian_file
  
  -----------------------------------------------------------------------
  Completed first pass over input file geometry.in .
  -----------------------------------------------------------------------
  

  Basic array size parameters:
  | Number of species                 :        2
  | Number of atoms                   :       21
  | Number of lattice vectors         :        3
  | Max. basis fn. angular momentum   :        4
  | Max. atomic/ionic basis occupied n:        2
  | Max. number of basis fn. types    :        3
  | Max. radial fns per species/type  :        8
  | Max. logarithmic grid size        :     1277
  | Max. radial integration grid size :       69
  | Max. angular integration grid size:      434
  | Max. angular grid division number :        8
  | Radial grid for Hartree potential :     1277
  | Number of spin channels           :        1

------------------------------------------------------------
          Reading file control.in.
------------------------------------------------------------
  XC: Using BLYP gradient-corrected functional.
  Found k-point grid:         1         1       500
  Occupation type: Gaussian broadening, width =   0.680000E+00 eV.
  Spin treatment: No spin polarisation.
  Initial spin moment per atom:   0.0000
  Kohn-Sham electronic structure solved by the ELSI library.
  The 'LVL' version of RI (resolution of identity) technique is used.
  ** This is a localized expansion of all basis function products.
     Its intended use are Hartree-Fock and hybrid functionals.
     For RPA, MP2, GW, etc., LVL is not yet as accurate. In those cases, check carefully.
  Using Kerker preconditioning with damping at q_0 =     0.2000E+01
  Convergence accuracy of self-consistent charge density:  0.1000E-05
  Convergence accuracy of forces:  0.1000E-03

  Plot band    1
  | begin  0.000000  0.000000  0.000000
  | end    0.000000  0.000000  0.500000
  | number of points:  101
  Calculating density of states with
  | energy interval :-25.000000 10.000000
  | points & tetrahedron method :  7001

  Reading configuration options for species Be                  .
  | Found nuclear charge :   4.0000
  | Found atomic mass :    9.0121819999999992      amu
  | Found l_max for Hartree potential  :   6
  | Found cutoff potl. onset [A], width [A], scale factor :    4.00000    2.00000    1.00000
  | Threshold for basis-dependent cutoff potential is   0.100000E-03
  | Found data for basic radial integration grid :    31 points, outermost radius =    7.000 A
  | Found multiplier for basic radial grid :   2
  | Found angular grid specification: user-specified.
  | Specified grid contains     5 separate shells.
  | Check grid settings after all constraints further below.
  | Found free-atom valence shell :  2 s   2.000
  | Found free-ion valence shell :  2 s   1.000
  | Found ionic basis function :  2 p , default cutoff radius.
  | Found hydrogenic basis function :  3 s   2.900
  | Found hydrogenic basis function :  3 d   3.500
  | Found hydrogenic basis function :  3 p   3.100
  | Found hydrogenic basis function :  4 d   4.700
  | Found hydrogenic basis function :  3 p   2.400
  | Found hydrogenic basis function :  4 f   7.600
  | Found hydrogenic basis function :  2 s   2.900
  Species Be                  : Missing cutoff potential type.
  Defaulting to exp(1/x)/(1-x)^2 type cutoff potential.
  Species Be: No 'logarithmic' tag. Using default grid for free atom:
  | Default logarithmic grid data [bohr] : 0.1000E-03 0.1000E+03 0.1012E+01
  | Will include ionic basis functions of  1.0-fold positive Be                   ion.
  Species Be: On-site basis accuracy parameter (for Gram-Schmidt orthonormalisation) not specified.
  Using default value basis_acc =  0.1000000E-03.
  Species Be                  : Using default innermost maximum threshold i_radial=  2 for radial functions.
  Species Be                  : Default cutoff onset for free atom density etc. : 0.40000000E+01 AA.
  Species Be                  : Basic radial grid will be enhanced according to radial_multiplier =   2, to contain    63 grid points.

  Reading configuration options for species C                   .
  | Found nuclear charge :   6.0000
  | Found atomic mass :    12.010700000000000      amu
  | Found l_max for Hartree potential  :   6
  | Found cutoff potl. onset [A], width [A], scale factor :    4.00000    2.00000    1.00000
  | Threshold for basis-dependent cutoff potential is   0.100000E-03
  | Found data for basic radial integration grid :    34 points, outermost radius =    7.000 A
  | Found multiplier for basic radial grid :   2
  | Found angular grid specification: user-specified.
  | Specified grid contains     6 separate shells.
  | Check grid settings after all constraints further below.
  | Found free-atom valence shell :  2 s   2.000
  | Found free-atom valence shell :  2 p   2.000
  | Found free-ion valence shell :  2 s   1.000
  | Found free-ion valence shell :  2 p   1.000
  | Found hydrogenic basis function :  2 p   1.700
  | Found hydrogenic basis function :  3 d   6.000
  | Found hydrogenic basis function :  2 s   4.900
  | Found hydrogenic basis function :  4 f   9.800
  | Found hydrogenic basis function :  3 p   5.200
  | Found hydrogenic basis function :  3 s   4.300
  | Found hydrogenic basis function :  5 g  14.400
  | Found hydrogenic basis function :  3 d   6.200
  Species C                   : Missing cutoff potential type.
  Defaulting to exp(1/x)/(1-x)^2 type cutoff potential.
  Species C : No 'logarithmic' tag. Using default grid for free atom:
  | Default logarithmic grid data [bohr] : 0.1000E-03 0.1000E+03 0.1012E+01
  Species C : On-site basis accuracy parameter (for Gram-Schmidt orthonormalisation) not specified.
  Using default value basis_acc =  0.1000000E-03.
  Species C                   : Using default innermost maximum threshold i_radial=  2 for radial functions.
  Species C                   : Default cutoff onset for free atom density etc. : 0.40000000E+01 AA.
  Species C                   : Basic radial grid will be enhanced according to radial_multiplier =   2, to contain    69 grid points.

  Finished reading input file 'control.in'.

------------------------------------------------------------


------------------------------------------------------------
          Reading geometry description geometry.in.
------------------------------------------------------------
  Found keyword 'hessian_file', indicating that this is the continuation of a structure optimization.
  However, the control.in file does not request the geometry to be optimized.
  Ignoring the request for a file 'hessian.aims' to be present.
  | The smallest distance between any two atoms is         1.43066900 AA.
  | The first atom of this pair is atom number                      5 .
  | The second atom of this pair is atom number                    15 .
  | Wigner-Seitz cell of the first atom image           0     0     1 .
  | (The Wigner-Seitz cell of the second atom is 0 0 0  by definition.)

  Symmetry information by spglib:
  | Precision set to  0.1E-04
  | Number of Operations  : 1
  | Space group           : 1
  | International         : P1
  | Schoenflies           : C1^1
  Input structure read successfully.
  The structure contains       21 atoms,  and a total of        124.000 electrons.

  Input geometry:
  | Unit cell:
  |       19.10993014       -0.78591887       -0.00473360
  |        0.78539857       18.50203128       -0.00461198
  |       -0.00510228        0.00024008        2.46738429
  | Atomic structure:
  |       Atom                x [A]            y [A]            z [A]
  |    1: Species Be            9.15920351        9.64301839        0.98042775
  |    2: Species C            12.56917318        9.06582054        1.23563504
  |    3: Species C            11.58271523        7.17121212        0.00001902
  |    4: Species C             9.66447532        6.22187631        1.22998882
  |    5: Species C             7.55958826        6.57669695       -0.00815262
  |    6: Species C             6.06227493        8.10549302        1.22254394
  |    7: Species C             5.75156553       10.21941627       -0.01219441
  |    8: Species C             6.74095355       12.11357428        1.22352738
  |    9: Species C             8.65709323       13.06502467       -0.00653689
  |   10: Species C            10.76243123       12.70726985        1.23158172
  |   11: Species C            12.26105089       11.18106343        0.00100810
  |   12: Species C            12.37791841        8.36727757        0.00151972
  |   13: Species C            11.01112812        6.72235511        1.23266950
  |   14: Species C             8.94290671        6.19012322       -0.00528973
  |   15: Species C             6.95425135        6.97926207        1.22445771
  |   16: Species C             5.81111968        8.78431787       -0.01193554
  |   17: Species C             5.94554133       10.91717566        1.22203580
  |   18: Species C             7.31076468       12.56463410       -0.00923935
  |   19: Species C             9.37878087       13.09395824        1.22874177
  |   20: Species C            11.36933599       12.30701505       -0.00091239
  |   21: Species C            12.50956987       10.50123549        1.23537837

  Lattice parameters for 3D lattice (in Angstroms) :    19.126085   18.518694    2.467390
  Angle(s) between unit vectors (in degrees)       :    90.013724   90.132791   89.924320


  Quantities derived from the lattice vectors:
  | Reciprocal lattice vector 1:  0.328219 -0.013932  0.000680
  | Reciprocal lattice vector 2:  0.013942  0.339003 -0.000004
  | Reciprocal lattice vector 3:  0.000656  0.000607  2.546498
  | Unit cell volume                               :   0.873922E+03  A^3

  Fractional coordinates:
                         L1                L2                L3
       atom_frac         0.45717869        0.54060161        0.39924267  Be
       atom_frac         0.63661500        0.51702580        0.50297517  C
       atom_frac         0.58915217        0.41261618        0.00190923  C
       atom_frac         0.49118604        0.35713855        0.50010897  C
       atom_frac         0.38031089        0.37161276       -0.00187993  C
       atom_frac         0.29883798        0.45077408        0.49689766  C
       atom_frac         0.27778614        0.56413992       -0.00335484  C
       atom_frac         0.32540304        0.66853174        0.49775423  C
       atom_frac         0.42325476        0.72411880       -0.00048381  C
       atom_frac         0.53415997        0.70948728        0.50149560  C
       atom_frac         0.61569539        0.63046858        0.00276822  C
       atom_frac         0.62803969        0.47891310        0.00271597  C
       atom_frac         0.56042253        0.38712946        0.50138430  C
       atom_frac         0.45342970        0.35382506       -0.00061261  C
       atom_frac         0.34793027        0.39198872        0.49765759  C
       atom_frac         0.28407936        0.48684287       -0.00338233  C
       atom_frac         0.28650534        0.60221638        0.49695113  C
       atom_frac         0.35403501        0.69413337       -0.00176793  C
       atom_frac         0.46102357        0.72728043        0.50023755  C
       atom_frac         0.56661738        0.68923945        0.00200557  C
       atom_frac         0.63031851        0.59433982        0.50300358  C


  Finished reading input file 'control.in'.


------------------------------------------------------------
          Reading geometry description geometry.in.
------------------------------------------------------------

  Consistency checks for stacksize environment parameter are next.

  | Maximum stacksize for task 0: unlimited
  | Maximum stacksize for task 1: unlimited
  | Maximum stacksize for task 2: unlimited
  | Maximum stacksize for task 3: unlimited
  | Maximum stacksize for task 4: unlimited
  | Maximum stacksize for task 5: unlimited
  | Maximum stacksize for task 6: unlimited
  | Maximum stacksize for task 7: unlimited
  | Maximum stacksize for task 8: unlimited
  | Maximum stacksize for task 9: unlimited
  | Maximum stacksize for task 10: unlimited
  | Maximum stacksize for task 11: unlimited
  | Maximum stacksize for task 12: unlimited
  | Maximum stacksize for task 13: unlimited
  | Maximum stacksize for task 14: unlimited
  | Maximum stacksize for task 15: unlimited
  | Maximum stacksize for task 16: unlimited
  | Maximum stacksize for task 17: unlimited
  | Maximum stacksize for task 18: unlimited
  | Maximum stacksize for task 19: unlimited
  | Maximum stacksize for task 20: unlimited
  | Maximum stacksize for task 21: unlimited
  | Maximum stacksize for task 22: unlimited
  | Maximum stacksize for task 23: unlimited
  | Maximum stacksize for task 24: unlimited
  | Maximum stacksize for task 25: unlimited
  | Maximum stacksize for task 26: unlimited
  | Maximum stacksize for task 27: unlimited
  | Maximum stacksize for task 28: unlimited
  | Maximum stacksize for task 29: unlimited
  | Maximum stacksize for task 30: unlimited
  | Maximum stacksize for task 31: unlimited
  | Maximum stacksize for task 32: unlimited
  | Maximum stacksize for task 33: unlimited
  | Maximum stacksize for task 34: unlimited
  | Maximum stacksize for task 35: unlimited
  | Maximum stacksize for task 36: unlimited
  | Maximum stacksize for task 37: unlimited
  | Maximum stacksize for task 38: unlimited
  | Maximum stacksize for task 39: unlimited
  | Maximum stacksize for task 40: unlimited
  | Maximum stacksize for task 41: unlimited
  | Maximum stacksize for task 42: unlimited
  | Maximum stacksize for task 43: unlimited
  | Maximum stacksize for task 44: unlimited
  | Maximum stacksize for task 45: unlimited
  | Maximum stacksize for task 46: unlimited
  | Maximum stacksize for task 47: unlimited
  | Maximum stacksize for task 48: unlimited
  | Maximum stacksize for task 49: unlimited
  | Maximum stacksize for task 50: unlimited
  | Maximum stacksize for task 51: unlimited
  | Maximum stacksize for task 52: unlimited
  | Maximum stacksize for task 53: unlimited
  | Maximum stacksize for task 54: unlimited
  | Maximum stacksize for task 55: unlimited
  | Maximum stacksize for task 56: unlimited
  | Maximum stacksize for task 57: unlimited
  | Maximum stacksize for task 58: unlimited
  | Maximum stacksize for task 59: unlimited
  | Maximum stacksize for task 60: unlimited
  | Maximum stacksize for task 61: unlimited
  | Maximum stacksize for task 62: unlimited
  | Maximum stacksize for task 63: unlimited
  | Maximum stacksize for task 64: unlimited
  | Maximum stacksize for task 65: unlimited
  | Maximum stacksize for task 66: unlimited
  | Maximum stacksize for task 67: unlimited
  | Maximum stacksize for task 68: unlimited
  | Maximum stacksize for task 69: unlimited
  | Maximum stacksize for task 70: unlimited
  | Maximum stacksize for task 71: unlimited
  | Maximum stacksize for task 72: unlimited
  | Maximum stacksize for task 73: unlimited
  | Maximum stacksize for task 74: unlimited
  | Maximum stacksize for task 75: unlimited
  | Maximum stacksize for task 76: unlimited
  | Maximum stacksize for task 77: unlimited
  | Maximum stacksize for task 78: unlimited
  | Maximum stacksize for task 79: unlimited
  | Maximum stacksize for task 80: unlimited
  | Maximum stacksize for task 81: unlimited
  | Maximum stacksize for task 82: unlimited
  | Maximum stacksize for task 83: unlimited
  | Maximum stacksize for task 84: unlimited
  | Maximum stacksize for task 85: unlimited
  | Maximum stacksize for task 86: unlimited
  | Maximum stacksize for task 87: unlimited
  | Maximum stacksize for task 88: unlimited
  | Maximum stacksize for task 89: unlimited
  | Maximum stacksize for task 90: unlimited
  | Maximum stacksize for task 91: unlimited
  | Maximum stacksize for task 92: unlimited
  | Maximum stacksize for task 93: unlimited
  | Maximum stacksize for task 94: unlimited
  | Maximum stacksize for task 95: unlimited
  | Maximum stacksize for task 96: unlimited
  | Maximum stacksize for task 97: unlimited
  | Maximum stacksize for task 98: unlimited
  | Maximum stacksize for task 99: unlimited
  | Maximum stacksize for task 100: unlimited
  | Maximum stacksize for task 101: unlimited
  | Maximum stacksize for task 102: unlimited
  | Maximum stacksize for task 103: unlimited
  | Maximum stacksize for task 104: unlimited
  | Maximum stacksize for task 105: unlimited
  | Maximum stacksize for task 106: unlimited
  | Maximum stacksize for task 107: unlimited
  | Maximum stacksize for task 108: unlimited
  | Maximum stacksize for task 109: unlimited
  | Maximum stacksize for task 110: unlimited
  | Maximum stacksize for task 111: unlimited
  | Maximum stacksize for task 112: unlimited
  | Maximum stacksize for task 113: unlimited
  | Maximum stacksize for task 114: unlimited
  | Maximum stacksize for task 115: unlimited
  | Maximum stacksize for task 116: unlimited
  | Maximum stacksize for task 117: unlimited
  | Maximum stacksize for task 118: unlimited
  | Maximum stacksize for task 119: unlimited
  | Maximum stacksize for task 120: unlimited
  | Maximum stacksize for task 121: unlimited
  | Maximum stacksize for task 122: unlimited
  | Maximum stacksize for task 123: unlimited
  | Maximum stacksize for task 124: unlimited
  | Maximum stacksize for task 125: unlimited
  | Maximum stacksize for task 126: unlimited
  | Maximum stacksize for task 127: unlimited
  | Current stacksize for task 0: unlimited
  | Current stacksize for task 1: unlimited
  | Current stacksize for task 2: unlimited
  | Current stacksize for task 3: unlimited
  | Current stacksize for task 4: unlimited
  | Current stacksize for task 5: unlimited
  | Current stacksize for task 6: unlimited
  | Current stacksize for task 7: unlimited
  | Current stacksize for task 8: unlimited
  | Current stacksize for task 9: unlimited
  | Current stacksize for task 10: unlimited
  | Current stacksize for task 11: unlimited
  | Current stacksize for task 12: unlimited
  | Current stacksize for task 13: unlimited
  | Current stacksize for task 14: unlimited
  | Current stacksize for task 15: unlimited
  | Current stacksize for task 16: unlimited
  | Current stacksize for task 17: unlimited
  | Current stacksize for task 18: unlimited
  | Current stacksize for task 19: unlimited
  | Current stacksize for task 20: unlimited
  | Current stacksize for task 21: unlimited
  | Current stacksize for task 22: unlimited
  | Current stacksize for task 23: unlimited
  | Current stacksize for task 24: unlimited
  | Current stacksize for task 25: unlimited
  | Current stacksize for task 26: unlimited
  | Current stacksize for task 27: unlimited
  | Current stacksize for task 28: unlimited
  | Current stacksize for task 29: unlimited
  | Current stacksize for task 30: unlimited
  | Current stacksize for task 31: unlimited
  | Current stacksize for task 32: unlimited
  | Current stacksize for task 33: unlimited
  | Current stacksize for task 34: unlimited
  | Current stacksize for task 35: unlimited
  | Current stacksize for task 36: unlimited
  | Current stacksize for task 37: unlimited
  | Current stacksize for task 38: unlimited
  | Current stacksize for task 39: unlimited
  | Current stacksize for task 40: unlimited
  | Current stacksize for task 41: unlimited
  | Current stacksize for task 42: unlimited
  | Current stacksize for task 43: unlimited
  | Current stacksize for task 44: unlimited
  | Current stacksize for task 45: unlimited
  | Current stacksize for task 46: unlimited
  | Current stacksize for task 47: unlimited
  | Current stacksize for task 48: unlimited
  | Current stacksize for task 49: unlimited
  | Current stacksize for task 50: unlimited
  | Current stacksize for task 51: unlimited
  | Current stacksize for task 52: unlimited
  | Current stacksize for task 53: unlimited
  | Current stacksize for task 54: unlimited
  | Current stacksize for task 55: unlimited
  | Current stacksize for task 56: unlimited
  | Current stacksize for task 57: unlimited
  | Current stacksize for task 58: unlimited
  | Current stacksize for task 59: unlimited
  | Current stacksize for task 60: unlimited
  | Current stacksize for task 61: unlimited
  | Current stacksize for task 62: unlimited
  | Current stacksize for task 63: unlimited
  | Current stacksize for task 64: unlimited
  | Current stacksize for task 65: unlimited
  | Current stacksize for task 66: unlimited
  | Current stacksize for task 67: unlimited
  | Current stacksize for task 68: unlimited
  | Current stacksize for task 69: unlimited
  | Current stacksize for task 70: unlimited
  | Current stacksize for task 71: unlimited
  | Current stacksize for task 72: unlimited
  | Current stacksize for task 73: unlimited
  | Current stacksize for task 74: unlimited
  | Current stacksize for task 75: unlimited
  | Current stacksize for task 76: unlimited
  | Current stacksize for task 77: unlimited
  | Current stacksize for task 78: unlimited
  | Current stacksize for task 79: unlimited
  | Current stacksize for task 80: unlimited
  | Current stacksize for task 81: unlimited
  | Current stacksize for task 82: unlimited
  | Current stacksize for task 83: unlimited
  | Current stacksize for task 84: unlimited
  | Current stacksize for task 85: unlimited
  | Current stacksize for task 86: unlimited
  | Current stacksize for task 87: unlimited
  | Current stacksize for task 88: unlimited
  | Current stacksize for task 89: unlimited
  | Current stacksize for task 90: unlimited
  | Current stacksize for task 91: unlimited
  | Current stacksize for task 92: unlimited
  | Current stacksize for task 93: unlimited
  | Current stacksize for task 94: unlimited
  | Current stacksize for task 95: unlimited
  | Current stacksize for task 96: unlimited
  | Current stacksize for task 97: unlimited
  | Current stacksize for task 98: unlimited
  | Current stacksize for task 99: unlimited
  | Current stacksize for task 100: unlimited
  | Current stacksize for task 101: unlimited
  | Current stacksize for task 102: unlimited
  | Current stacksize for task 103: unlimited
  | Current stacksize for task 104: unlimited
  | Current stacksize for task 105: unlimited
  | Current stacksize for task 106: unlimited
  | Current stacksize for task 107: unlimited
  | Current stacksize for task 108: unlimited
  | Current stacksize for task 109: unlimited
  | Current stacksize for task 110: unlimited
  | Current stacksize for task 111: unlimited
  | Current stacksize for task 112: unlimited
  | Current stacksize for task 113: unlimited
  | Current stacksize for task 114: unlimited
  | Current stacksize for task 115: unlimited
  | Current stacksize for task 116: unlimited
  | Current stacksize for task 117: unlimited
  | Current stacksize for task 118: unlimited
  | Current stacksize for task 119: unlimited
  | Current stacksize for task 120: unlimited
  | Current stacksize for task 121: unlimited
  | Current stacksize for task 122: unlimited
  | Current stacksize for task 123: unlimited
  | Current stacksize for task 124: unlimited
  | Current stacksize for task 125: unlimited
  | Current stacksize for task 126: unlimited
  | Current stacksize for task 127: unlimited

  Consistency checks for the contents of control.in are next.

  MPI_IN_PLACE appears to work with this MPI implementation.
  | Keeping use_mpi_in_place .true. (see manual).
  Target number of points in a grid batch is not set. Defaulting to  100
  Method for grid partitioning is not set. Defaulting to parallel hash+maxmin partitioning.
  Batch size limit is not set. Defaulting to    200
  By default, will store active basis functions for each batch.
  If in need of memory, prune_basis_once .false. can be used to disable this option.
  communication_type for Hartree potential was not specified.
  Defaulting to calc_hartree .
  Defaulting to Pulay charge density mixer.
  Pulay mixer: Number of relevant iterations not set.
  Defaulting to    8 iterations.
  Pulay mixer: Number of initial linear mixing iterations not set.
  Defaulting to    0 iterations.
  Work space size for distributed Hartree potential not set.
  Defaulting to   0.200000E+03 MB.
  Mixing parameter for charge density mixing has not been set.
  Using default: charge_mix_param =     0.0500.
  The mixing parameter will be adjusted in iteration number     2 of the first full s.c.f. cycle only.
  Algorithm-dependent basis array size parameters:
  | n_max_pulay                         :        8
  Maximum number of self-consistency iterations not provided.
  Presetting  1000 iterations.
  Presetting      1001 iterations before the initial mixing cycle
  is restarted anyway using the sc_init_iter criterion / keyword.
  Presetting a factor      1.000 between actual scf density residual
  and density convergence criterion sc_accuracy_rho below which sc_init_iter
  takes no effect.
  Geometry relaxation not requested: no relaxation will be performed.
  Forces evaluation will include force correction term due to incomplete self-consistency (default).
  Handling of forces: Unphysical translation and rotation will be removed from forces.
  No accuracy limit for integral partition fn. given. Defaulting to  0.1000E-14.
  No threshold value for u(r) in integrations given. Defaulting to  0.1000E-05.
  No accuracy for occupation numbers given. Defaulting to  0.1000E-12.
  No threshold value for occupation numbers given. Defaulting to  0.0000E+00.
  No accuracy for fermi level given. Defaulting to  0.1000E-19.
  Maximum # of iterations to find E_F not set. Defaulting to  200.
 * You have   500 k-points in your system, but only   128 MPI-tasks available.
 * In this case using ScaLAPACK is not necessary / supported.
 * Switching to LAPACK (via ELSI) instead.
  Will not use alltoall communication since running on < 1024 CPUs.
  Threshold for basis singularities not set.
  Default threshold for basis singularities:  0.1000E-04
  partition_type (choice of integration weights) for integrals was not specified.
  | Using a version of the partition function of Stratmann and coworkers ('stratmann_sparse').
  | At each grid point, the set of atoms used to build the partition table is smoothly restricted to
  | only those atoms whose free-atom density would be non-zero at that grid point.
  Partitioning for Hartree potential was not defined. Using partition_type for integrals.
  | Adjusted default value of keyword multip_moments_threshold to:       0.10000000E-11
  | This value may affect high angular momentum components of the Hartree potential in periodic systems.
  Angular momentum expansion for Kerker preconditioner not set explicitly.
  | Using default value of   0
  No explicit requirement for turning off preconditioner.
  | By default, it will be turned off when the charge convergence reaches
  | sc_accuracy_rho  =   0.100000E-05
  No special mixing parameter while Kerker preconditioner is on.
  Using default: charge_mix_param =     0.0500.
  No q(lm)/r^(l+1) cutoff set for long-range Hartree potential.
  | Using default value of  0.100000E-09 .
  | Verify using the multipole_threshold keyword.
  Defaulting to new monopole extrapolation.
  Density update method: automatic selection selected.
  Using density matrix based charge density update.
  Using density matrix based charge density update.
  Using packed matrix style: index .
  Defaulting to use time-reversal symmetry for k-point grid.
  Charge integration errors on the 3D integration grid will be compensated
  by explicit normalization and distribution of residual charges.
  Use the "compensate_multipole_errors" flag to change this behaviour.
  Set 'collect_eigenvectors' to be '.true.' for all serial calculations. This is mandatory.
  Set 'collect_eigenvectors' to be '.true.' for KS_method lapack_fast and serial.

  Consistency checks for the contents of geometry.in are next.


  Range separation radius for Ewald summation (hartree_convergence_parameter):      5.00000000 bohr.
 * Warning! You did not set the 'relativistic' flag in input file 'control.in'.
 * Since you are not attempting to treat any elements beyond Ca(Z=20), FHI-aims
 * will default to 'relativistic none'.
 * You must ensure that this is really what you want!!
 * For example, DO NOT compute total-energy differences between results from
 * different settings of the 'relativistic' flag.
  Number of empty states per atom not set in control.in - providing a guess from actual geometry.
  | Total number of empty states used during s.c.f. cycle:       62
  If you use a very high smearing, use empty_states (per atom!) in control.in to increase this value.

  Structure-dependent array size parameters: 
  | Maximum number of distinct radial functions  :       21
  | Maximum number of basis functions            :      810
  | Number of Kohn-Sham states (occupied + empty):      124
------------------------------------------------------------

------------------------------------------------------------
          Preparing all fixed parts of the calculation.
------------------------------------------------------------
  Determining machine precision:
     2.2250738585072014E-308
  Setting up grids for atomic and cluster calculations.

  Creating wave function, potential, and density for free atoms.

  Species: Be

  List of occupied orbitals and eigenvalues:
    n    l              occ      energy [Ha]    energy [eV]
    1    0           2.0000        -3.913759      -106.4988
    2    0           2.0000        -0.199308        -5.4235


  Species: C

  List of occupied orbitals and eigenvalues:
    n    l              occ      energy [Ha]    energy [eV]
    1    0           2.0000       -10.061602      -273.7901
    2    0           2.0000        -0.499120       -13.5817
    2    1           2.0000        -0.191941        -5.2230


  Adding cutoff potential to free-atom effective potential.
  Creating fixed part of basis set: Ionic, confined, hydrogenic.

  Be                   ion:

  List of free ionic orbitals and eigenvalues:
    n    l      energy [Ha]    energy [eV]
    1    0        -4.342042      -118.1530
    2    0        -0.501123       -13.6362


  List of ionic basis orbitals and eigenvalues:
    n    l      energy [Ha]    energy [eV]    outer radius [A]
    2    1        -0.358875        -9.7655       5.412664


  Be                   hydrogenic:

  List of hydrogenic basis orbitals: 
    n    l      effective z      eigenvalue [eV]  inner max. [A]     outer max. [A]     outer radius [A]   
    3    0         2.900000       -12.5649           0.134902           2.357125           5.479240
    3    2         3.500000       -18.5140           1.359774           1.359774           5.412664
    3    1         3.100000       -14.4728           0.511360           2.035502           5.479240
    4    2         4.700000       -18.6841           0.765477           2.386117           5.479240
    3    1         2.400000        -8.3476           0.661030           2.567717           5.479240
    4    3         7.600000       -49.1163           1.118198           1.118198           4.789814
    2    0         2.900000       -28.6057           0.139942           0.953891           4.848728


  C                    hydrogenic:

  List of hydrogenic basis orbitals: 
    n    l      effective z      eigenvalue [eV]  inner max. [A]     outer max. [A]     outer radius [A]   
    2    1         1.700000        -9.8152           1.245706           1.245706           5.401630
    3    2         6.000000       -54.4226           0.792453           0.792453           4.178599
    2    0         4.900000       -81.6681           0.082559           0.562749           3.353238
    4    3         9.800000       -81.6681           0.863254           0.863254           4.028125
    3    1         5.200000       -40.8774           0.305389           1.215618           4.898362
    3    0         4.300000       -27.9508           0.091041           1.610311           5.401630
    5    4        14.400000      -112.8510           0.917666           0.917666           3.883070
    3    2         6.200000       -58.1113           0.763917           0.763917           4.077671

  Creating atomic-like basis functions for current effective potential.

  Species Be                  :

  List of atomic basis orbitals and eigenvalues:
    n    l      energy [Ha]    energy [eV]    outer radius [A]
    1    0        -3.913759      -106.4988       3.047029
    2    0        -0.199308        -5.4235       5.412664


  Species C                   :

  List of atomic basis orbitals and eigenvalues:
    n    l      energy [Ha]    energy [eV]    outer radius [A]
    1    0       -10.061602      -273.7901       1.934409
    2    0        -0.499120       -13.5817       5.271162
    2    1        -0.191941        -5.2230       5.401630

  Assembling full basis from fixed parts.
  | Species Be :   atomic orbital   1 s accepted.
  | Species Be :    hydro orbital   2 s accepted.
  | Species Be :   atomic orbital   2 s accepted.
  | Species Be :    hydro orbital   3 s accepted.
  | Species Be :    ionic orbital   2 p accepted.
  | Species Be :    hydro orbital   3 p accepted.
  | Species Be :    hydro orbital   3 p accepted.
  | Species Be :    hydro orbital   3 d accepted.
  | Species Be :    hydro orbital   4 d accepted.
  | Species Be :    hydro orbital   4 f accepted.
  | Species C :   atomic orbital   1 s accepted.
  | Species C :    hydro orbital   2 s accepted.
  | Species C :   atomic orbital   2 s accepted.
  | Species C :    hydro orbital   3 s accepted.
  | Species C :    hydro orbital   3 p accepted.
  | Species C :   atomic orbital   2 p accepted.
  | Species C :    hydro orbital   2 p accepted.
  | Species C :    hydro orbital   3 d accepted.
  | Species C :    hydro orbital   3 d accepted.
  | Species C :    hydro orbital   4 f accepted.
  | Species C :    hydro orbital   5 g accepted.

  Basis size parameters after reduction:
  | Total number of radial functions:       21
  | Total number of basis functions :      810

  Per-task memory consumption for arrays in subroutine allocate_ext:
  |           5.168260MB.
  Testing on-site integration grid accuracy.
  |  Species  Function  <phi|h_atom|phi> (log., in eV)  <phi|h_atom|phi> (rad., in eV)
           1        1               -106.4988007835               -106.4988004706
           1        2                 -4.1099753504                 -4.1099849565
           1        3                 11.3139553260                 11.3185359455
           1        4                185.1179512039                185.1208636606
           1        5                 -1.4281224223                 -1.4279635304
           1        6                  8.2393484974                  8.2416398338
           1        7                 15.5388481167                 15.5660332986
           1        8                  9.0963392864                  9.0966073065
           1        9                 19.6660387642                 19.6703030144
           1       10                 36.0283232581                 36.0283201097
           2       11               -273.7901162246               -273.7901146924
           2       12                -10.6593454322                -10.6593675792
           2       13                 17.0527610142                 17.0527815066
           2       14                 55.0622378564                 55.0625162637
           2       15                 15.0505160693                 15.0505129260
           2       16                  3.7659134156                  3.7659773891
           2       17                 11.8078976666                 11.8103928498
           2       18                 29.6365046523                 29.6365049766
           2       19                 54.7437900785                 54.7437027864
           2       20                 59.5933351698                 59.5933351037
           2       21                 93.7035349135                 93.7035349877

  Preparing densities etc. for the partition functions (integrals / Hartree potential).

  Preparations completed.
  max(cpu_time)          :      0.175 s.
  Wall clock time (cpu1) :      0.176 s.
------------------------------------------------------------

------------------------------------------------------------
          Begin self-consistency loop: Initialization.

          Date     :  20220323, Time     :  131037.075
------------------------------------------------------------

  Initializing index lists of integration centers etc. from given atomic structure:
  Mapping all atomic coordinates to central unit cell.

  Initializing the k-points
  Using symmetry for reducing the k-points
  | k-points reduced from:      500 to      251
  | Number of k-points                             :       251
  The eigenvectors in the calculations are COMPLEX.
  | K-points in task   0:         1
  | K-points in task   1:         2
  | K-points in task   2:         2
  | K-points in task   3:         2
  | K-points in task   4:         2
  | K-points in task   5:         2
  | K-points in task   6:         2
  | K-points in task   7:         2
  | K-points in task   8:         2
  | K-points in task   9:         2
  | K-points in task  10:         2
  | K-points in task  11:         2
  | K-points in task  12:         2
  | K-points in task  13:         2
  | K-points in task  14:         2
  | K-points in task  15:         2
  | K-points in task  16:         2
  | K-points in task  17:         2
  | K-points in task  18:         2
  | K-points in task  19:         2
  | K-points in task  20:         2
  | K-points in task  21:         2
  | K-points in task  22:         2
  | K-points in task  23:         2
  | K-points in task  24:         2
  | K-points in task  25:         2
  | K-points in task  26:         2
  | K-points in task  27:         2
  | K-points in task  28:         2
  | K-points in task  29:         2
  | K-points in task  30:         2
  | K-points in task  31:         2
  | K-points in task  32:         2
  | K-points in task  33:         2
  | K-points in task  34:         2
  | K-points in task  35:         2
  | K-points in task  36:         2
  | K-points in task  37:         2
  | K-points in task  38:         2
  | K-points in task  39:         2
  | K-points in task  40:         2
  | K-points in task  41:         2
  | K-points in task  42:         2
  | K-points in task  43:         2
  | K-points in task  44:         2
  | K-points in task  45:         2
  | K-points in task  46:         2
  | K-points in task  47:         2
  | K-points in task  48:         2
  | K-points in task  49:         2
  | K-points in task  50:         2
  | K-points in task  51:         2
  | K-points in task  52:         2
  | K-points in task  53:         2
  | K-points in task  54:         2
  | K-points in task  55:         2
  | K-points in task  56:         2
  | K-points in task  57:         2
  | K-points in task  58:         2
  | K-points in task  59:         2
  | K-points in task  60:         2
  | K-points in task  61:         2
  | K-points in task  62:         2
  | K-points in task  63:         2
  | K-points in task  64:         2
  | K-points in task  65:         2
  | K-points in task  66:         2
  | K-points in task  67:         2
  | K-points in task  68:         2
  | K-points in task  69:         2
  | K-points in task  70:         2
  | K-points in task  71:         2
  | K-points in task  72:         2
  | K-points in task  73:         2
  | K-points in task  74:         2
  | K-points in task  75:         2
  | K-points in task  76:         2
  | K-points in task  77:         2
  | K-points in task  78:         2
  | K-points in task  79:         2
  | K-points in task  80:         2
  | K-points in task  81:         2
  | K-points in task  82:         2
  | K-points in task  83:         2
  | K-points in task  84:         2
  | K-points in task  85:         2
  | K-points in task  86:         2
  | K-points in task  87:         2
  | K-points in task  88:         2
  | K-points in task  89:         2
  | K-points in task  90:         2
  | K-points in task  91:         2
  | K-points in task  92:         2
  | K-points in task  93:         2
  | K-points in task  94:         2
  | K-points in task  95:         2
  | K-points in task  96:         2
  | K-points in task  97:         2
  | K-points in task  98:         2
  | K-points in task  99:         2
  | K-points in task 100:         2
  | K-points in task 101:         2
  | K-points in task 102:         2
  | K-points in task 103:         2
  | K-points in task 104:         2
  | K-points in task 105:         2
  | K-points in task 106:         2
  | K-points in task 107:         2
  | K-points in task 108:         2
  | K-points in task 109:         2
  | K-points in task 110:         2
  | K-points in task 111:         2
  | K-points in task 112:         2
  | K-points in task 113:         2
  | K-points in task 114:         2
  | K-points in task 115:         2
  | K-points in task 116:         2
  | K-points in task 117:         2
  | K-points in task 118:         2
  | K-points in task 119:         2
  | K-points in task 120:         2
  | K-points in task 121:         2
  | K-points in task 122:         2
  | K-points in task 123:         2
  | K-points in task 124:         1
  | K-points in task 125:         1
  | K-points in task 126:         1
  | K-points in task 127:         1
  | Number of basis functions in the Hamiltonian integrals :     12869
  | Number of basis functions in a single unit cell        :       810
  | Number of centers in hartree potential         :      1509
  | Number of centers in hartree multipole         :       876
  | Number of centers in electron density summation:       784
  | Number of centers in basis integrals           :       800
  | Number of centers in integrals                 :       446
  | Number of centers in hamiltonian               :       784
  | Consuming        368 KiB for k_phase.
  | Number of super-cells (origin) [n_cells]                     :         425
  | Number of super-cells (after PM_index) [n_cells]             :          94
  | Number of super-cells in hamiltonian [n_cells_in_hamiltonian]:          94
  | Size of matrix packed + index [n_hamiltonian_matrix_size] :     2014048
  | Estimated reciprocal-space cutoff momentum G_max:         1.90186217 bohr^-1 .
  | Reciprocal lattice points for long-range Hartree potential:     726
  Partitioning the integration grid into batches with parallel hashing+maxmin method.
  | Number of batches:     3232
  | Maximal batch size:     200
  | Minimal batch size:       3
  | Average batch size:     117.707
  | Standard deviation of batch sizes:      28.820

  Integration load balanced across   128 MPI tasks.
  Work distribution over tasks is as follows:
  Task     0 has       2987 integration points.
  Task     1 has       2941 integration points.
  Task     2 has       2960 integration points.
  Task     3 has       2990 integration points.
  Task     4 has       2934 integration points.
  Task     5 has       2981 integration points.
  Task     6 has       2988 integration points.
  Task     7 has       3004 integration points.
  Task     8 has       2966 integration points.
  Task     9 has       2931 integration points.
  Task    10 has       2930 integration points.
  Task    11 has       2981 integration points.
  Task    12 has       2972 integration points.
  Task    13 has       2947 integration points.
  Task    14 has       3006 integration points.
  Task    15 has       3004 integration points.
  Task    16 has       2971 integration points.
  Task    17 has       2967 integration points.
  Task    18 has       2983 integration points.
  Task    19 has       2982 integration points.
  Task    20 has       2981 integration points.
  Task    21 has       2997 integration points.
  Task    22 has       2979 integration points.
  Task    23 has       3004 integration points.
  Task    24 has       2932 integration points.
  Task    25 has       2975 integration points.
  Task    26 has       2980 integration points.
  Task    27 has       2980 integration points.
  Task    28 has       2974 integration points.
  Task    29 has       2969 integration points.
  Task    30 has       2972 integration points.
  Task    31 has       2987 integration points.
  Task    32 has       2966 integration points.
  Task    33 has       2990 integration points.
  Task    34 has       2989 integration points.
  Task    35 has       2983 integration points.
  Task    36 has       2991 integration points.
  Task    37 has       2930 integration points.
  Task    38 has       2932 integration points.
  Task    39 has       2974 integration points.
  Task    40 has       2962 integration points.
  Task    41 has       2962 integration points.
  Task    42 has       2992 integration points.
  Task    43 has       2975 integration points.
  Task    44 has       2969 integration points.
  Task    45 has       2993 integration points.
  Task    46 has       2984 integration points.
  Task    47 has       2968 integration points.
  Task    48 has       2972 integration points.
  Task    49 has       2978 integration points.
  Task    50 has       2936 integration points.
  Task    51 has       2979 integration points.
  Task    52 has       2976 integration points.
  Task    53 has       3005 integration points.
  Task    54 has       2972 integration points.
  Task    55 has       2970 integration points.
  Task    56 has       2994 integration points.
  Task    57 has       2933 integration points.
  Task    58 has       2968 integration points.
  Task    59 has       2982 integration points.
  Task    60 has       2978 integration points.
  Task    61 has       2943 integration points.
  Task    62 has       2937 integration points.
  Task    63 has       2980 integration points.
  Task    64 has       2998 integration points.
  Task    65 has       2986 integration points.
  Task    66 has       2992 integration points.
  Task    67 has       2985 integration points.
  Task    68 has       2974 integration points.
  Task    69 has       2973 integration points.
  Task    70 has       2977 integration points.
  Task    71 has       2938 integration points.
  Task    72 has       2988 integration points.
  Task    73 has       3008 integration points.
  Task    74 has       2972 integration points.
  Task    75 has       2988 integration points.
  Task    76 has       2985 integration points.
  Task    77 has       2985 integration points.
  Task    78 has       2933 integration points.
  Task    79 has       2971 integration points.
  Task    80 has       2975 integration points.
  Task    81 has       2934 integration points.
  Task    82 has       2987 integration points.
  Task    83 has       2932 integration points.
  Task    84 has       3006 integration points.
  Task    85 has       3007 integration points.
  Task    86 has       2989 integration points.
  Task    87 has       2974 integration points.
  Task    88 has       2969 integration points.
  Task    89 has       3007 integration points.
  Task    90 has       2953 integration points.
  Task    91 has       2939 integration points.
  Task    92 has       2996 integration points.
  Task    93 has       2975 integration points.
  Task    94 has       2938 integration points.
  Task    95 has       2942 integration points.
  Task    96 has       2932 integration points.
  Task    97 has       2990 integration points.
  Task    98 has       2959 integration points.
  Task    99 has       2976 integration points.
  Task   100 has       2970 integration points.
  Task   101 has       2991 integration points.
  Task   102 has       3009 integration points.
  Task   103 has       2972 integration points.
  Task   104 has       2975 integration points.
  Task   105 has       2962 integration points.
  Task   106 has       2928 integration points.
  Task   107 has       3004 integration points.
  Task   108 has       2958 integration points.
  Task   109 has       2935 integration points.
  Task   110 has       2993 integration points.
  Task   111 has       2974 integration points.
  Task   112 has       2929 integration points.
  Task   113 has       2931 integration points.
  Task   114 has       2928 integration points.
  Task   115 has       2976 integration points.
  Task   116 has       2978 integration points.
  Task   117 has       2999 integration points.
  Task   118 has       2971 integration points.
  Task   119 has       2969 integration points.
  Task   120 has       2972 integration points.
  Task   121 has       2984 integration points.
  Task   122 has       3003 integration points.
  Task   123 has       2930 integration points.
  Task   124 has       2977 integration points.
  Task   125 has       2969 integration points.
  Task   126 has       3001 integration points.
  Task   127 has       2991 integration points.
  Initializing partition tables, free-atom densities, potentials, etc. across the integration grid (initialize_grid_storage).
  | initialize_grid_storage: Actual outermost partition radius vs. multipole_radius_free
  | (-- VB: in principle, multipole_radius_free should be larger, hence this output)
  | Species        1: Confinement radius =              6.000000000000000 AA, multipole_radius_free =              6.042188081213826 AA.
  | Species        1: outer_partition_radius set to              6.042188081213826 AA .
  | Species        2: Confinement radius =              6.000000000000000 AA, multipole_radius_free =              6.029870734432609 AA.
  | Species        2: outer_partition_radius set to              6.029870734432609 AA .
  | The sparse table of interatomic distances needs       2419.57 kbyte instead of      5120.00 kbyte of memory.
  | Net number of integration points:   380430
  | of which are non-zero points    :   284922
  | Numerical average free-atom electrostatic potential    :     -3.00143392 eV
  Renormalizing the initial density to the exact electron count on the 3D integration grid.
  | Initial density: Formal number of electrons (from input files) :     124.0000000000
  | Integrated number of electrons on 3D grid     :     124.0001667131
  | Charge integration error                      :       0.0001667131
  | Normalization factor for density and gradient :       0.9999986555
  Renormalizing the free-atom superposition density to the exact electron count on the 3D integration grid.
  | Formal number of electrons (from input files) :     124.0000000000
  | Integrated number of electrons on 3D grid     :     124.0001667131
  | Charge integration error                      :       0.0001667131
  | Normalization factor for density and gradient :       0.9999986555
  Obtaining max. number of non-zero basis functions in each batch (get_n_compute_maxes).
  | Maximal number of non-zero basis functions:     2067 in task     0
  | Maximal number of non-zero basis functions:     1948 in task     1
  | Maximal number of non-zero basis functions:     2113 in task     2
  | Maximal number of non-zero basis functions:     2147 in task     3
  | Maximal number of non-zero basis functions:     2006 in task     4
  | Maximal number of non-zero basis functions:     1945 in task     5
  | Maximal number of non-zero basis functions:     2113 in task     6
  | Maximal number of non-zero basis functions:     2065 in task     7
  | Maximal number of non-zero basis functions:     2051 in task     8
  | Maximal number of non-zero basis functions:     2155 in task     9
  | Maximal number of non-zero basis functions:     2068 in task    10
  | Maximal number of non-zero basis functions:     2138 in task    11
  | Maximal number of non-zero basis functions:     2057 in task    12
  | Maximal number of non-zero basis functions:     2061 in task    13
  | Maximal number of non-zero basis functions:     2105 in task    14
  | Maximal number of non-zero basis functions:     2120 in task    15
  | Maximal number of non-zero basis functions:     2128 in task    16
  | Maximal number of non-zero basis functions:     1967 in task    17
  | Maximal number of non-zero basis functions:     2084 in task    18
  | Maximal number of non-zero basis functions:     2114 in task    19
  | Maximal number of non-zero basis functions:     1969 in task    20
  | Maximal number of non-zero basis functions:     2003 in task    21
  | Maximal number of non-zero basis functions:     2106 in task    22
  | Maximal number of non-zero basis functions:     2106 in task    23
  | Maximal number of non-zero basis functions:     2125 in task    24
  | Maximal number of non-zero basis functions:     1958 in task    25
  | Maximal number of non-zero basis functions:     2161 in task    26
  | Maximal number of non-zero basis functions:     2110 in task    27
  | Maximal number of non-zero basis functions:     2039 in task    28
  | Maximal number of non-zero basis functions:     2127 in task    29
  | Maximal number of non-zero basis functions:     2068 in task    30
  | Maximal number of non-zero basis functions:     1918 in task    31
  | Maximal number of non-zero basis functions:     2176 in task    32
  | Maximal number of non-zero basis functions:     1999 in task    33
  | Maximal number of non-zero basis functions:     1956 in task    34
  | Maximal number of non-zero basis functions:     2113 in task    35
  | Maximal number of non-zero basis functions:     2132 in task    36
  | Maximal number of non-zero basis functions:     1973 in task    37
  | Maximal number of non-zero basis functions:     2109 in task    38
  | Maximal number of non-zero basis functions:     2101 in task    39
  | Maximal number of non-zero basis functions:     2105 in task    40
  | Maximal number of non-zero basis functions:     2003 in task    41
  | Maximal number of non-zero basis functions:     2113 in task    42
  | Maximal number of non-zero basis functions:     2116 in task    43
  | Maximal number of non-zero basis functions:     1946 in task    44
  | Maximal number of non-zero basis functions:     1995 in task    45
  | Maximal number of non-zero basis functions:     1998 in task    46
  | Maximal number of non-zero basis functions:     1811 in task    47
  | Maximal number of non-zero basis functions:     2073 in task    48
  | Maximal number of non-zero basis functions:     1998 in task    49
  | Maximal number of non-zero basis functions:     2003 in task    50
  | Maximal number of non-zero basis functions:     2140 in task    51
  | Maximal number of non-zero basis functions:     2157 in task    52
  | Maximal number of non-zero basis functions:     2071 in task    53
  | Maximal number of non-zero basis functions:     2083 in task    54
  | Maximal number of non-zero basis functions:     2133 in task    55
  | Maximal number of non-zero basis functions:     2075 in task    56
  | Maximal number of non-zero basis functions:     2118 in task    57
  | Maximal number of non-zero basis functions:     2064 in task    58
  | Maximal number of non-zero basis functions:     2132 in task    59
  | Maximal number of non-zero basis functions:     2192 in task    60
  | Maximal number of non-zero basis functions:     1948 in task    61
  | Maximal number of non-zero basis functions:     2127 in task    62
  | Maximal number of non-zero basis functions:     2090 in task    63
  | Maximal number of non-zero basis functions:     2078 in task    64
  | Maximal number of non-zero basis functions:     2099 in task    65
  | Maximal number of non-zero basis functions:     2105 in task    66
  | Maximal number of non-zero basis functions:     2144 in task    67
  | Maximal number of non-zero basis functions:     2065 in task    68
  | Maximal number of non-zero basis functions:     2086 in task    69
  | Maximal number of non-zero basis functions:     2068 in task    70
  | Maximal number of non-zero basis functions:     2137 in task    71
  | Maximal number of non-zero basis functions:     2084 in task    72
  | Maximal number of non-zero basis functions:     1976 in task    73
  | Maximal number of non-zero basis functions:     2090 in task    74
  | Maximal number of non-zero basis functions:     2085 in task    75
  | Maximal number of non-zero basis functions:     1995 in task    76
  | Maximal number of non-zero basis functions:     2054 in task    77
  | Maximal number of non-zero basis functions:     2049 in task    78
  | Maximal number of non-zero basis functions:     2181 in task    79
  | Maximal number of non-zero basis functions:     2107 in task    80
  | Maximal number of non-zero basis functions:     2140 in task    81
  | Maximal number of non-zero basis functions:     2153 in task    82
  | Maximal number of non-zero basis functions:     2126 in task    83
  | Maximal number of non-zero basis functions:     2064 in task    84
  | Maximal number of non-zero basis functions:     2116 in task    85
  | Maximal number of non-zero basis functions:     2118 in task    86
  | Maximal number of non-zero basis functions:     2016 in task    87
  | Maximal number of non-zero basis functions:     2154 in task    88
  | Maximal number of non-zero basis functions:     2092 in task    89
  | Maximal number of non-zero basis functions:     2123 in task    90
  | Maximal number of non-zero basis functions:     2032 in task    91
  | Maximal number of non-zero basis functions:     2191 in task    92
  | Maximal number of non-zero basis functions:     1976 in task    93
  | Maximal number of non-zero basis functions:     2165 in task    94
  | Maximal number of non-zero basis functions:     2024 in task    95
  | Maximal number of non-zero basis functions:     2101 in task    96
  | Maximal number of non-zero basis functions:     2158 in task    97
  | Maximal number of non-zero basis functions:     2133 in task    98
  | Maximal number of non-zero basis functions:     2051 in task    99
  | Maximal number of non-zero basis functions:     2124 in task   100
  | Maximal number of non-zero basis functions:     2063 in task   101
  | Maximal number of non-zero basis functions:     2185 in task   102
  | Maximal number of non-zero basis functions:     2156 in task   103
  | Maximal number of non-zero basis functions:     2173 in task   104
  | Maximal number of non-zero basis functions:     2165 in task   105
  | Maximal number of non-zero basis functions:     2083 in task   106
  | Maximal number of non-zero basis functions:     2097 in task   107
  | Maximal number of non-zero basis functions:     1858 in task   108
  | Maximal number of non-zero basis functions:     2070 in task   109
  | Maximal number of non-zero basis functions:     1859 in task   110
  | Maximal number of non-zero basis functions:     2077 in task   111
  | Maximal number of non-zero basis functions:     2084 in task   112
  | Maximal number of non-zero basis functions:     2073 in task   113
  | Maximal number of non-zero basis functions:     2050 in task   114
  | Maximal number of non-zero basis functions:     2039 in task   115
  | Maximal number of non-zero basis functions:     2028 in task   116
  | Maximal number of non-zero basis functions:     2100 in task   117
  | Maximal number of non-zero basis functions:     2054 in task   118
  | Maximal number of non-zero basis functions:     2152 in task   119
  | Maximal number of non-zero basis functions:     2064 in task   120
[...]
     45       2.00000          -0.377720          -10.27828
     46       2.00000          -0.377717          -10.27820
     47       2.00000          -0.372709          -10.14194
     48       2.00000          -0.372709          -10.14193
     49       2.00000          -0.345611           -9.40455
     50       2.00000          -0.345606           -9.40442
     51       2.00000          -0.337133           -9.17386
     52       2.00000          -0.337129           -9.17375
     53       2.00000          -0.322170           -8.76670
     54       2.00000          -0.322164           -8.76653
     55       2.00000          -0.301130           -8.19417
     56       2.00000          -0.301126           -8.19406
     57       2.00000          -0.294380           -8.01049
     58       2.00000          -0.284593           -7.74417
     59       2.00000          -0.283191           -7.70601
     60       2.00000          -0.283185           -7.70586
     61       2.00000          -0.274979           -7.48257
     62       1.99999          -0.240886           -6.55485
     63       0.01162          -0.117079           -3.18588
     64       0.01162          -0.117075           -3.18577
     65       0.00599          -0.113102           -3.07766
     66       0.00000          -0.064678           -1.75998
     67       0.00000          -0.064672           -1.75982
     68       0.00000           0.011767            0.32019
     69       0.00000           0.011773            0.32036
     70       0.00000           0.019142            0.52088
     71       0.00000           0.028390            0.77252
     72       0.00000           0.028394            0.77263
     73       0.00000           0.036607            0.99613
     74       0.00000           0.036615            0.99634
     75       0.00000           0.051278            1.39536
     76       0.00000           0.062972            1.71355
     77       0.00000           0.062978            1.71372
     78       0.00000           0.063724            1.73402
     79       0.00000           0.063749            1.73469
     80       0.00000           0.072811            1.98130
     81       0.00000           0.072824            1.98163
     82       0.00000           0.099880            2.71787
     83       0.00000           0.099887            2.71805
     84       0.00000           0.101855            2.77163
     85       0.00000           0.118978            3.23756
     86       0.00000           0.118982            3.23767
     87       0.00000           0.131811            3.58675
     88       0.00000           0.131817            3.58692
     89       0.00000           0.136636            3.71804
     90       0.00000           0.142857            3.88734
     91       0.00000           0.161019            4.38156
     92       0.00000           0.161024            4.38168
     93       0.00000           0.165427            4.50150
     94       0.00000           0.170117            4.62912
     95       0.00000           0.170125            4.62934
     96       0.00000           0.179168            4.87541
     97       0.00000           0.179180            4.87573
     98       0.00000           0.186829            5.08389
     99       0.00000           0.190238            5.17663
    100       0.00000           0.190241            5.17672
    101       0.00000           0.200996            5.46939
    102       0.00000           0.211032            5.74248
    103       0.00000           0.211045            5.74282
    104       0.00000           0.255370            6.94896
    105       0.00000           0.255379            6.94922
    106       0.00000           0.277275            7.54503
    107       0.00000           0.282141            7.67745
    108       0.00000           0.282159            7.67795
    109       0.00000           0.284614            7.74475
    110       0.00000           0.284654            7.74584
    111       0.00000           0.360910            9.82085
    112       0.00000           0.360939            9.82166
    113       0.00000           0.366114            9.96247
    114       0.00000           0.366117            9.96255
    115       0.00000           0.371905           10.12005
    116       0.00000           0.371934           10.12084
    117       0.00000           0.372105           10.12549
    118       0.00000           0.372112           10.12567
    119       0.00000           0.384461           10.46172
    120       0.00000           0.388256           10.56499
    121       0.00000           0.388273           10.56546
    122       0.00000           0.426946           11.61779
    123       0.00000           0.426957           11.61809
    124       0.00000           0.469904           12.78675

  What follows are estimated values for band gap, HOMO, LUMO, etc.
  | They are estimated on a discrete k-point grid and not necessarily exact.
  | For converged numbers, create a DOS and/or band structure plot on a denser k-grid.

  Highest occupied state (VBM) at     -4.40042299 eV (relative to internal zero)
  | Occupation number:      1.00202510
  | K-point:     125 at    0.000000    0.000000    0.330000 (in units of recip. lattice)

  Lowest unoccupied state (CBM) at    -4.39794025 eV (relative to internal zero)
  | Occupation number:      0.99790530
  | K-point:     213 at    0.000000    0.000000    0.692000 (in units of recip. lattice)

  ESTIMATED overall HOMO-LUMO gap:      0.00248274 eV between HOMO at k-point 125 and LUMO at k-point 213
  | This appears to be an indirect band gap.
  | Smallest direct gap :      0.27261533 eV for k_point 213 at    0.000000    0.000000    0.692000 (in units of recip. lattice)
  However, this system has fractional occupation numbers. Since we use a finite k-point grid,
  this material is metallic within the approximate finite broadening function (occupation_type)
  applied to determine the occupation numbers.
  | Chemical Potential                          :    -4.39920259 eV

  Self-consistency cycle converged.


------------------------------------------------------------
  End self-consistency iteration #    39       :  max(cpu_time)    wall_clock(cpu1)
  | Time for this iteration                    :       23.269 s          23.418 s
  | Charge density & force component update    :       18.466 s          18.585 s
  | Density mixing                             :        0.002 s           0.002 s
  | Hartree multipole update                   :        0.015 s           0.015 s
  | Hartree multipole summation                :        1.185 s           1.189 s
  | Hartree pot. SCF incomplete forces         :        0.828 s           0.832 s
  | Integration                                :        1.186 s           1.195 s
  | Solution of K.-S. eqns.                    :        1.587 s           1.595 s
  | Total energy evaluation                    :        0.001 s           0.001 s

  Partial memory accounting:
  | Current value for overall tracked memory usage:
  |   Minimum:       37.132 MB (on task   0)
  |   Maximum:       38.665 MB (on task   1)
  |   Average:       38.605 MB
  | Peak value for overall tracked memory usage:
  |   Minimum:      118.955 MB (on task  47 after allocating d_wave)
  |   Maximum:      142.218 MB (on task  60 after allocating d_wave)
  |   Average:      134.840 MB
  | Largest tracked array allocation so far:
  |   Minimum:       25.022 MB (hamiltonian_shell on task  47)
  |   Maximum:       36.658 MB (hamiltonian_shell on task  60)
  |   Average:       32.900 MB
  Note:  These values currently only include a subset of arrays which are explicitly tracked.
  The "true" memory usage will be greater.
------------------------------------------------------------
  Removing unitary transformations (pure translations, rotations) from forces on atoms.
  Atomic forces before filtering:
  | Net force on center of mass :   0.154580E-03 -0.135961E-03  0.967359E-05 eV/A
  Atomic forces after filtering:
  | Net force on center of mass :   0.235476E-18  0.566230E-18 -0.544452E-18 eV/A

  Energy and forces in a compact form:
  | Total energy uncorrected      :         -0.211415211906592E+05 eV
  | Total energy corrected        :         -0.211416499233877E+05 eV  <-- do not rely on this value for anything but (periodic) metals
  | Electronic free energy        :         -0.211417786561163E+05 eV
  Total atomic forces (unitary forces cleaned) [eV/Ang]:
  |    1          0.642272516188910E-03         -0.205003085328862E-03          0.735257830062005E-03
  |    2         -0.236189974616100E-04          0.423822136397813E-03          0.714350672565520E-04
  |    3         -0.111647663419171E-03         -0.209556697253400E-03         -0.333590043658962E-03
  |    4          0.483850191410261E-03         -0.738685681433552E-04         -0.711598806624550E-03
  |    5          0.166194236683551E-02         -0.977852012696216E-03          0.392190373638827E-02
  |    6          0.354553040736907E-03         -0.101574697563124E-02         -0.466993927638530E-02
  |    7         -0.283654025702618E-03         -0.179920952377655E-02          0.419904084887855E-02
  |    8         -0.998199093370845E-03         -0.838966426799621E-03         -0.409020988502790E-02
  |    9         -0.805487984192685E-03          0.663809341059319E-05          0.461636060972119E-03
  |   10         -0.860208253490557E-03          0.425333716630017E-03          0.627571847787950E-03
  |   11          0.947532860808776E-04         -0.117365448926435E-04          0.430572719661190E-03
  |   12         -0.410862893819953E-04         -0.156186560474752E-03          0.265864915529354E-03
  |   13          0.418178404364062E-03          0.157353955089422E-03          0.588610309424180E-03
  |   14         -0.125697628807986E-02          0.105378221668732E-03          0.487231969726135E-03
  |   15         -0.156151685683009E-02          0.915080290107658E-03         -0.403829581953519E-02
  |   16         -0.390078372874190E-03          0.173194083894904E-02          0.417173869365191E-02
  |   17          0.520998820129724E-03          0.148911161146073E-02         -0.473613763260022E-02
  |   18          0.562789122586338E-03          0.574169019820399E-03          0.392812800236404E-02
  |   19          0.111537753037000E-02         -0.138467701231361E-03         -0.717561390707562E-03
  |   20          0.473822649169763E-03         -0.644921839989935E-04         -0.435563673769826E-03
  |   21          0.393589693126383E-05         -0.337741603307407E-03         -0.156095473392763E-03

  Calculating total density of states ...
  | Chemical potential is  -4.399203 eV.
  | writing DOS (shifted by electron chemical potential) to file KS_DOS_total_tetrahedron.dat
  | writing DOS (raw data) to file KS_DOS_total_raw_tetrahedron.dat
  ------------------------------------ 
  Start decomposition of the XC Energy 
  ------------------------------------ 
  X and C from original XC functional choice 
  Hartree-Fock Energy :          0.000000000 Ha              0.000000000 eV
  X Energy            :       -107.118532116 Ha          -2914.843564488 eV
  C Energy            :         -4.385559037 Ha           -119.337133208 eV
  Total XC Energy     :       -111.504091153 Ha          -3034.180697696 eV
  ------------------------------------ 
  LDA X and C from self-consistent density 
  X Energy LDA        :        -96.624430975 Ha          -2629.284543354 eV
  C Energy LDA        :         -8.190670408 Ha           -222.879481794 eV
  ------------------------------------ 
  End decomposition of the XC Energy 
  ------------------------------------ 

------------------------------------------------------------

  -------------------------------------------------------------------
  Writing the requested band structure output (LAPACK version):
  -------------------------------------------------------------------

  Integrating Hamiltonian matrix: batch-based integration.
  Time summed over all CPUs for integration: real work      127.087 s, elapsed      139.599 s

  Treating all  101 k-points in band plot segment #   1:


  "Band gap" along reciprocal space direction number:    1
  | Lowest unoccupied state:      -4.35986513 eV
  | Highest occupied state :      -4.40042282 eV
  | Energy difference      :       0.04055769 eV

  "Band gap" of total set of bands:
  | Lowest unoccupied state:      -4.35986513 eV
  | Highest occupied state :      -4.40042282 eV
  | Energy difference      :       0.04055769 eV


  Band Structure                                          :  max(cpu_time) wall_clock(cpu1)
  | Total Time                                            :          2.453            2.537
------------------------------------------------------------

------------------------------------------------------------------------------
  Final output of selected total energy values:

  The following output summarizes some interesting total energy values
  at the end of a run (AFTER all relaxation, molecular dynamics, etc.).

  | Total energy of the DFT / Hartree-Fock s.c.f. calculation      :         -21141.521190659 eV
  | Final zero-broadening corrected energy (caution - metals only) :         -21141.649923388 eV
  | For reference only, the value of 1 Hartree used in FHI-aims is :             27.211384500 eV
  | For reference only, the overall average (free atom contribution
  | + realspace contribution) of the electrostatic potential after
  | s.c.f. convergence is                                          :             -2.727045522 eV

  Before relying on these values, please be sure to understand exactly which
  total energy value is referred to by a given number. Different objects may
  all carry the same name 'total energy'. Definitions:

  Total energy of the DFT / Hartree-Fock s.c.f. calculation:
  | Note that this energy does not include ANY quantities calculated after the
  | s.c.f. cycle, in particular not ANY RPA, MP2, etc. many-body perturbation terms.

  Final zero-broadening corrected energy:
  | For metallic systems only, a broadening of the occupation numbers at the Fermi
  | level can be extrapolated back to zero broadening by an electron-gas inspired
  | formula. For all systems that are not real metals, this value can be
  | meaningless and should be avoided.

------------------------------------------------------------------------------
  Methods described in the following list of references were used in this FHI-aims run.
  If you publish the results, please make sure to cite these reference if they apply.
  FHI-aims is an academic code, and for our developers (often, Ph.D. students
  and postdocs), scientific credit in the community is essential.
  Thank you for helping us!

  For any use of FHI-aims, please cite:

    Volker Blum, Ralf Gehrke, Felix Hanke, Paula Havu, Ville Havu,
    Xinguo Ren, Karsten Reuter, and Matthias Scheffler
    'Ab initio molecular simulations with numeric atom-centered orbitals'
    Computer Physics Communications 180, 2175-2196 (2009)
    http://dx.doi.org/10.1016/j.cpc.2009.06.022


  The provided symmetry information was generated with SPGlib:

    Atsushi Togo, Yusuke Seto, Dimitar Pashov
    SPGlib 1.7.3 obtained from http://spglib.sourceforge.net
    Copyright (C) 2008 Atsushi Togo


  The ELSI infrastructure was used in your run to solve the Kohn-Sham electronic structure.
  Please check out http://elsi-interchange.org to learn more.
  If scalability is important for your project, please acknowledge ELSI by citing:

    V. W-z. Yu, F. Corsetti, A. Garcia, W. P. Huhn, M. Jacquelin, W. Jia,
    B. Lange, L. Lin, J. Lu, W. Mi, A. Seifitokaldani, A. Vazquez-Mayagoitia,
    C. Yang, H. Yang, and V. Blum
    'ELSI: A unified software interface for Kohn-Sham electronic structure solvers'
    Computer Physics Communications 222, 267-285 (2018).
    http://dx.doi.org/10.1016/j.cpc.2017.09.007


  For the real-space grid partitioning and parallelization used in this calculation, please cite:

    Ville Havu, Volker Blum, Paula Havu, and Matthias Scheffler,
    'Efficient O(N) integration for all-electron electronic structure calculation'
    'using numerically tabulated basis functions'
    Journal of Computational Physics 228, 8367-8379 (2009).
    http://dx.doi.org/10.1016/j.jcp.2009.08.008


  The high-level electronic structure method used in your calculation
  employed our efficient localized resolution of identity for the Coulomb operator.
  Some calculations, especially large-scale hybrid density functional theory,
  are only possible thanks to this development. For this feature, please cite:

    Arvid Ihrig, Juergen Wieferink, Igor Ying Zhang, Matti Ropo, Xinguo Ren,
    Patrick Rinke, Matthias Scheffler, and Volker Blum,
    'Accurate localized resolution of identity approach for linear-scaling
    hybrid density functionals and for many-body perturbation theory'
    New Journal of Physics 117, 093020 (2015).
    http://dx.doi.org/10.1088/1367-2630/17/9/093020

  Of course, there are many other important community references, e.g., those cited in the
  above references. Our list is limited to references that describe implementations in the
  FHI-aims code. The reason is purely practical (length of this list) - please credit others as well.

------------------------------------------------------------
          Leaving FHI-aims.
          Date     :  20220323, Time     :  131459.906

          Computational steps:
          | Number of self-consistency cycles          :           39
          | Number of SCF (re)initializations          :            1

          Detailed time accounting                     :  max(cpu_time)    wall_clock(cpu1)
          | Total time                                 :      261.620 s         263.210 s
          | Preparation time                           :        0.175 s           0.176 s
          | Boundary condition initalization           :        0.131 s           0.133 s
          | Grid partitioning                          :        0.341 s           0.343 s
          | Preloading free-atom quantities on grid    :        0.252 s           0.257 s
          | Free-atom superposition energy             :        0.023 s           0.023 s
          | Total time for integrations                :       48.955 s          49.306 s
          | Total time for solution of K.-S. equations :       58.364 s          58.699 s
          | Total time for density & force components  :      127.056 s         127.755 s
          | Total time for mixing & preconditioning    :        5.563 s           5.582 s
          | Total time for Hartree multipole update    :        0.589 s           0.596 s
          | Total time for Hartree multipole sum       :       15.331 s          15.387 s
          | Total time for total energy evaluation     :        0.026 s           0.021 s
          | Total time NSC force correction            :        1.655 s           1.663 s
          | Total time for band structures, DOS        :        2.474 s           2.811 s

          Partial memory accounting:
          | Residual value for overall tracked memory usage across tasks:     0.000000 MB (should be 0.000000 MB)
          | Peak values for overall tracked memory usage:
          |   Minimum:      118.955 MB (on task  47 after allocating d_wave)
          |   Maximum:      142.218 MB (on task  60 after allocating d_wave)
          |   Average:      134.840 MB
          | Largest tracked array allocation:
          |   Minimum:       25.022 MB (hamiltonian_shell on task  47)
          |   Maximum:       36.658 MB (hamiltonian_shell on task  60)
          |   Average:       32.900 MB
          Note:  These values currently only include a subset of arrays which are explicitly tracked.
          The "true" memory usage will be greater.

          Have a nice day.
------------------------------------------------------------
