 +-------------------------------------------------+
 |                                                 |
 |      CCC   AA    SSS  TTTTT  EEEEE  PPPP        |
 |     C     A  A  S       T    E      P   P       |
 |     C     AAAA   SS     T    EEE    PPPP        |
 |     C     A  A     S    T    E      P           |
 |      CCC  A  A  SSS     T    EEEEE  P           |
 |                                                 |
 +-------------------------------------------------+
 |                                                 |
 | Welcome to Academic Release CASTEP version 22.1 |          
 | Ab Initio Total Energy Program                  |
 |                                                 |
 | Authors:                                        |
 | M. Segall, M. Probert, C. Pickard, P. Hasnip,   |
 | S. Clark, K. Refson, J. R. Yates, M. Payne      |
 |                                                 |
 | Contributors:                                   |
 | P. Lindan, P. Haynes, J. White, V. Milman,      |
 | N. Govind, M. Gibson, P. Tulip, V. Cocula,      |
 | B. Montanari, D. Quigley, M. Glover,            |
 | L. Bernasconi, A. Perlov, M. Plummer,           |
 | E. McNellis, J. Meyer, J. Gale, D. Jochym       |
 | J. Aarons, B. Walker, R. Gillen, D. Jones       |
 | T. Green, I. J. Bush, C. J. Armstrong,          |
 | E. J. Higgins, E. L. Brown, M. S. McFly,        |
 | J. Wilkins, B-C. Shih, P. J. P. Byrne,          |
 | R. J. Maurer, J. C. Womack, J. Dziedzic,        |
 | A. Bartok-Partay, L. LeBlanc, T. K. Stenczel,   |
 | J. Kermode, S. Sturniolo                        |
 |                                                 |
 | Copyright (c) 2000 - 2021                       |
 |                                                 |
 |     Distributed under license from Cambridge    |
 |     Enterprise for academic use only.           |
 |                                                 |
 | Please cite                                     |
 |                                                 |
 |     "First principles methods using CASTEP"     |
 |                                                 |
 |         Zeitschrift fuer Kristallographie       |
 |           220(5-6) pp. 567-570 (2005)           |
 |                                                 |
 | S. J. Clark, M. D. Segall, C. J. Pickard,       |
 | P. J. Hasnip, M. J. Probert, K. Refson,         |
 | M. C. Payne                                     |
 |                                                 |
 |       in all publications arising from          |
 |              your use of CASTEP                 |
 |                                                 |
 +-------------------------------------------------+
 |                                                 |
 |              http://www.castep.org              |
 |                                                 |
 +-------------------------------------------------+



 Compiled for linux_x86_64_gfortran10 on Thu, 07 Oct 2021 22:56:02 +0100
 from code version f361359b0+  default  Mon Sep 27 15:13:22 2021 +0100
 Compiler: GNU Fortran 10.2.0; Optimisation: fast
 MATHLIBS: openblas (LAPACK version 3.9.0)
 FFT Lib : fftw3 version fftw-3.3.8-sse2-avx-avx2-avx2_128
 Fundamental constants values: CODATA 2014

 Run started: Tue, 22 Mar 2022 15:25:57 +0000

 Atomic calculation performed for Be: 1s2 2s2

 Converged in 45 iterations to an ae energy of -398.180 eV

   ============================================================                
   | Pseudopotential Report - Date of generation 22-03-2022   |                
   ------------------------------------------------------------                
   | Element: Be Ionic charge:  4.00 Level of theory: PBE     |                
   | Atomic Solver: Koelling-Harmon                           |                
   |                                                          |                
   |               Reference Electronic Structure             |                
   |         Orbital         Occupation         Energy        |                
   |            1s              2.000           -3.903        |                
   |            2s              2.000           -0.206        |                
   |                                                          |                
   |                 Pseudopotential Definition               |                
   |        Beta     l      e      Rc     scheme   norm       |                
   |          1      0   -3.903   0.996     qc      0         |                
   |          2      0   -0.206   0.996     qc      0         |                
   |          3      0    0.250   0.996     qc      0         |                
   |          4      1    0.000   0.996     qc      0         |                
   |          5      1    0.250   0.996     qc      0         |                
   |         loc     2    0.000   0.996     pn      0         |                
   |                                                          |                
   | Augmentation charge Rinner = 0.702                       |                
   | No partial core correction                               |                
   ------------------------------------------------------------                
   | "2|1.0|14|16|18|10U:20:21(qc=7)"                         |                
   ------------------------------------------------------------                
   |      Author: Chris J. Pickard, Cambridge University      |                
   ============================================================                

 Atomic calculation performed for C: 1s2 2s2 2p2

 Converged in 54 iterations to an ae energy of -1027.632 eV

   ============================================================                
   | Pseudopotential Report - Date of generation 22-03-2022   |                
   ------------------------------------------------------------                
   | Element: C Ionic charge:  4.00 Level of theory: PBE      |                
   | Atomic Solver: Koelling-Harmon                           |                
   |                                                          |                
   |               Reference Electronic Structure             |                
   |         Orbital         Occupation         Energy        |                
   |            2s              2.000           -0.505        |                
   |            2p              2.000           -0.194        |                
   |                                                          |                
   |                 Pseudopotential Definition               |                
   |        Beta     l      e      Rc     scheme   norm       |                
   |          1      0   -0.505   1.395     qc      0         |                
   |          2      0    0.250   1.395     qc      0         |                
   |          3      1   -0.194   1.395     qc      0         |                
   |          4      1    0.250   1.395     qc      0         |                
   |         loc     2    0.000   1.395     pn      0         |                
   |                                                          |                
   | Augmentation charge Rinner = 0.983                       |                
   | Partial core correction Rc = 0.983                       |                
   ------------------------------------------------------------                
   | "2|1.4|10|12|13|20:21(qc=7)"                             |                
   ------------------------------------------------------------                
   |      Author: Chris J. Pickard, Cambridge University      |                
   ============================================================                

 Pseudo atomic calculation performed for Be 1s2 2s2

 Converged in 15 iterations to a total energy of -388.4527 eV

 Pseudo atomic calculation performed for C 2s2 2p2

 Converged in 17 iterations to a total energy of -148.5252 eV
 Calculation parallelised over 256 processes.
 Data is distributed by G-vector(4-way) and k-point(64-way)

 ************************************ Title ************************************
 

 ***************************** General Parameters ******************************
  
 output verbosity                               : normal  (1)
 write checkpoint data to                       : BeC_tube+wire_1400ev.check
 type of calculation                            : single point energy
 stress calculation                             : on
 density difference calculation                 : off
 electron localisation func (ELF) calculation   : off
 Hirshfeld analysis                             : off
 polarisation (Berry phase) analysis            : off
 molecular orbital projected DOS                : off
 deltaSCF calculation                           : off
 unlimited duration calculation
 timing information                             : on
 memory usage estimate                          : on
 write extra output files                       : on
 write final potential to formatted file        : off
 write final density to formatted file          : off
 write BibTeX reference list                    : on
 write OTFG pseudopotential files               : on
 write electrostatic potential file             : on
 write bands file                               : on
 checkpoint writing                             : both castep_bin and check files
  
 output         length unit                     : A
 output           mass unit                     : amu
 output           time unit                     : ps
 output         charge unit                     : e
 output           spin unit                     : hbar/2
 output         energy unit                     : eV
 output          force unit                     : eV/A
 output       velocity unit                     : A/ps
 output       pressure unit                     : GPa
 output     inv_length unit                     : 1/A
 output      frequency unit                     : cm-1
 output force constant unit                     : eV/A**2
 output         volume unit                     : A**3
 output   IR intensity unit                     : (D/A)**2/amu
 output         dipole unit                     : D
 output         efield unit                     : eV/A/e
 output        entropy unit                     : J/mol/K
 output    efield chi2 unit                     : pm/V
  
 wavefunctions paging                           : none
 random number generator seed                   : randomised (152557306)
 data distribution                              : k-point only
 optimization strategy                          : maximize speed(+++)

 *********************** Exchange-Correlation Parameters ***********************
  
 using functional                               : Perdew Burke Ernzerhof
 relativistic treatment                         : Koelling-Harmon
 DFT+D: Semi-empirical dispersion correction    : off

 ************************* Pseudopotential Parameters **************************
  
 pseudopotential representation                 : reciprocal space
 <beta|phi> representation                      : reciprocal space
 spin-orbit coupling                            : off

 **************************** Basis Set Parameters *****************************
  
 plane wave basis set cut-off                   :  1400.0000   eV
 size of standard grid                          :     2.0000
 size of   fine   gmax                          :    38.3383   1/A
 largest prime factor in FFT                    :          5
 finite basis set correction                    : automatic
 number of sample energies                      :          3
           sample  spacing                      :     5.0000   eV

 **************************** Electronic Parameters ****************************
  
 number of  electrons                           :  84.00    
 net charge of system                           :  0.000    
 treating system as non-spin-polarized
 number of bands                                :         77

 ********************* Electronic Minimization Parameters **********************
  
 Method: Treating system as metallic with density mixing treatment of electrons,
         and number of  SD  steps               :          1
         and number of  CG  steps               :          4
  
 total energy / atom convergence tol.           : 0.1000E-04   eV
 eigen-energy convergence tolerance             : 0.1000E-05   eV
 max force / atom convergence tol.              : ignored
 convergence tolerance window                   :          3   cycles
 max. number of SCF cycles                      :         30
 number of fixed-spin iterations                :         10
 smearing scheme                                : Gaussian
 smearing width                                 : 0.5000E-01   eV
 Fermi energy convergence tolerance             : 0.2721E-13   eV
 periodic dipole correction                     : NONE

 ************************** Density Mixing Parameters **************************
  
 density-mixing scheme                          : Pulay
 max. length of mixing history                  :         20
 charge density mixing amplitude                : 0.8000    
 cut-off energy for mixing                      :  1400.       eV
 charge density mixing g-vector                 :  1.500       1/A

 *********************** Population Analysis Parameters ************************
  
 Population analysis with cutoff                :  3.000       A
 Population analysis output                     : summary and pdos components

 ******************************* Developer Code ********************************
  
 PARALLEL: kpoint=64 : ENDPARALLEL

 *******************************************************************************
  

                           -------------------------------
                                      Unit Cell
                           -------------------------------
        Real Lattice(A)                      Reciprocal Lattice(1/A)
    19.1230500    -0.7864580    -0.0047370        0.327993637  -0.013922938   0.000679655
     0.7854600    18.5034760    -0.0046120        0.013940789   0.338976058  -0.000004143
    -0.0050600     0.0002380     2.4467730        0.000661279   0.000611992   2.567949094

                       Lattice parameters(A)       Cell Angles
                    a =     19.139216          alpha =   90.013725
                    b =     18.520140          beta  =   90.132799
                    c =      2.446778          gamma =   89.924318

                       Current cell volume =           867.284252       A**3
                                   density =             0.287364   AMU/A**3
                                           =             0.477179     g/cm^3

                           -------------------------------
                                     Cell Contents
                           -------------------------------
                         Total number of ions in cell =   21
                      Total number of species in cell =    2
                        Max number of any one species =   20

            xxxxxxxxxxxxxxxxxxxxxxxxxxxxxxxxxxxxxxxxxxxxxxxxxxxxxxxxxxxx
            x  Element    Atom        Fractional coordinates of atoms  x
            x            Number           u          v          w      x
            x----------------------------------------------------------x
            x  Be           1         0.457604   0.540465   0.378835   x 
            x  C            1         0.637640   0.516852   0.501116   x 
            x  C            2         0.590200   0.412531   0.000824   x 
            x  C            3         0.491425   0.357645   0.500567   x 
            x  C            4         0.379890   0.371681   0.000353   x 
            x  C            5         0.297847   0.450562   0.500339   x 
            x  C            6         0.276806   0.564321   0.000558   x 
            x  C            7         0.324272   0.668656   0.500952   x 
            x  C            8         0.422972   0.723645   0.001172   x 
            x  C            9         0.534531   0.709457   0.501323   x 
            x  C           10         0.616607   0.630656   0.001135   x 
            x  C           11         0.629078   0.478827   0.000963   x 
            x  C           12         0.561134   0.387077   0.500603   x 
            x  C           13         0.453499   0.354465   0.000219   x 
            x  C           14         0.347090   0.391699   0.500372   x 
            x  C           15         0.283165   0.486860   0.000431   x 
            x  C           16         0.285400   0.602315   0.500675   x 
            x  C           17         0.353265   0.694202   0.001106   x 
            x  C           18         0.460917   0.726674   0.501504   x 
            x  C           19         0.567378   0.689507   0.001383   x 
            x  C           20         0.631263   0.594329   0.501190   x 
            xxxxxxxxxxxxxxxxxxxxxxxxxxxxxxxxxxxxxxxxxxxxxxxxxxxxxxxxxxxx


                         No user defined ionic velocities

                           -------------------------------
                                   Details of Species
                           -------------------------------

                               Mass of species in AMU
                                    Be    9.0121870
                                    C   12.0107000

                          Electric Quadrupole Moment (Barn)
                                    Be    0.0528800 Isotope  9
                                    C    0.0332700 Isotope 11

                          Files used for pseudopotentials:
                                    Be 2|1.0|14|16|18|10U:20:21(qc=7)
                                    C 2|1.4|10|12|13|20:21(qc=7)

                           -------------------------------
                              k-Points For BZ Sampling
                           -------------------------------
                       MP grid size for SCF calculation is  1  1500
                            with an offset of   0.000  0.000  0.000
                       Number of kpoints used =           250

                           -------------------------------
                               Symmetry and Constraints
                           -------------------------------

                      Maximum deviation from symmetry =  0.00000         ANG

                      Number of symmetry operations   =           1
                      Number of ionic constraints     =           3
                      Point group of crystal =     1: C1, 1, 1
                      Space group of crystal =     1: P1, P 1

             Set iprint > 1 for details on symmetry rotations/translations

                         Centre of mass is constrained
             Set iprint > 1 for details of linear ionic constraints

                         Number of cell constraints= 6
                         Cell constraints are:  0 0 0 0 0 0

                         External pressure/stress (GPa)
                          0.00000   0.00000   0.00000
                                    0.00000   0.00000
                                              0.00000
  
+---------------- MEMORY AND SCRATCH DISK ESTIMATES PER PROCESS --------------+
|                                                     Memory          Disk    |
| Baseline code, static data and system overhead      597.0 MB         0.0 MB |
| BLAS internal memory storage                          0.0 MB         0.0 MB |
| Model and support data                              917.9 MB         0.0 MB |
| Electronic energy minimisation requirements         444.3 MB         0.0 MB |
| Force calculation requirements                       65.0 MB         0.0 MB |
| Stress calculation requirements                      71.8 MB         0.0 MB |
|                                               ----------------------------- |
| Approx. total storage required per process         1959.2 MB         0.0 MB |
|                                                                             |
| Requirements will fluctuate during execution and may exceed these estimates |
+-----------------------------------------------------------------------------+
Calculating finite basis set correction with  3 cut-off energies.
Calculating total energy with cut-off of 1390.000 eV.
Calculating approximate eigenstates for fixed initial Hamiltonian
Cut-off for approx. calculation is   89.988 eV
Improving approx. states at cut-off of  694.995 eV
Resetting cut-off to 1389.990 eV
------------------------------------------------------------------------ <-- SCF
SCF loop      Energy           Fermi           Energy gain       Timer   <-- SCF
                               energy          per atom          (sec)   <-- SCF
------------------------------------------------------------------------ <-- SCF
Initial  -3.25703123E+003  0.00000000E+000                       169.33  <-- SCF
      1  -3.55020449E+003 -4.20809862E+000   1.39606313E+001     354.40  <-- SCF
      2  -3.55023307E+003 -4.20840294E+000   1.36105500E-003     508.15  <-- SCF
      3  -3.54215353E+003 -3.74497909E+000  -3.84740021E-001     685.93  <-- SCF
      4  -3.54180986E+003 -3.44749998E+000  -1.63652241E-002     874.97  <-- SCF
      5  -3.54171842E+003 -3.12239789E+000  -4.35445598E-003    1061.84  <-- SCF
      6  -3.54167077E+003 -3.08195348E+000  -2.26904015E-003    1241.96  <-- SCF
      7  -3.54162431E+003 -2.88724995E+000  -2.21213897E-003    1422.03  <-- SCF
      8  -3.54156340E+003 -2.50513889E+000  -2.90068763E-003    1595.78  <-- SCF
      9  -3.54155584E+003 -2.40052400E+000  -3.59967631E-004    1770.93  <-- SCF
     10  -3.54157023E+003 -2.27604856E+000   6.85282640E-004    1930.91  <-- SCF
     11  -3.54158165E+003 -2.17587149E+000   5.43744012E-004    2091.31  <-- SCF
     12  -3.54158641E+003 -2.11793510E+000   2.26905129E-004    2246.72  <-- SCF
     13  -3.54158911E+003 -2.09957348E+000   1.28236676E-004    2396.82  <-- SCF
     14  -3.54158972E+003 -2.07105128E+000   2.90995016E-005    2543.35  <-- SCF
     15  -3.54158998E+003 -2.05041049E+000   1.23464459E-005    2689.70  <-- SCF
     16  -3.54159112E+003 -2.03744474E+000   5.45595862E-005    2830.18  <-- SCF
     17  -3.54159221E+003 -2.03098278E+000   5.16521870E-005    2973.11  <-- SCF
     18  -3.54159281E+003 -2.02986616E+000   2.84862996E-005    3113.21  <-- SCF
     19  -3.54159323E+003 -2.02927236E+000   2.03234611E-005    3254.41  <-- SCF
     20  -3.54159335E+003 -2.02905980E+000   5.78352856E-006    3399.40  <-- SCF
     21  -3.54159345E+003 -2.02888949E+000   4.41604588E-006    3543.88  <-- SCF
     22  -3.54159349E+003 -2.02858991E+000   2.10818862E-006    3685.80  <-- SCF
------------------------------------------------------------------------ <-- SCF
 
Final energy, E             =  -3541.591578317     eV
Final free energy (E-TS)    =  -3541.593491916     eV
(energies not corrected for finite basis set)
 
NB est. 0K energy (E-0.5TS)      =  -3541.592535116     eV
 
Calculating total energy with cut-off of 1395.000 eV.
------------------------------------------------------------------------ <-- SCF
SCF loop      Energy           Fermi           Energy gain       Timer   <-- SCF
                               energy          per atom          (sec)   <-- SCF
------------------------------------------------------------------------ <-- SCF
Initial  -3.54159162E+003  0.00000000E+000                      3727.22  <-- SCF
      1  -3.54159356E+003 -2.02939152E+000   9.22454314E-005    3854.93  <-- SCF
      2  -3.54159356E+003 -2.02939152E+000   1.86811505E-009    4003.39  <-- SCF
      3  -3.54159356E+003 -2.02869390E+000  -2.52736355E-008    4134.56  <-- SCF
      4  -3.54159356E+003 -2.02891039E+000  -2.80664721E-009    4258.66  <-- SCF
------------------------------------------------------------------------ <-- SCF
 
Final energy, E             =  -3541.591643921     eV
Final free energy (E-TS)    =  -3541.593558422     eV
(energies not corrected for finite basis set)
 
NB est. 0K energy (E-0.5TS)      =  -3541.592601172     eV
 
Calculating total energy with cut-off of 1400.000 eV.
------------------------------------------------------------------------ <-- SCF
SCF loop      Energy           Fermi           Energy gain       Timer   <-- SCF
                               energy          per atom          (sec)   <-- SCF
------------------------------------------------------------------------ <-- SCF
Initial  -3.54159164E+003  0.00000000E+000                      4299.61  <-- SCF
      1  -3.54159358E+003 -2.02819111E+000   9.22954803E-005    4407.26  <-- SCF
      2  -3.54159358E+003 -2.02819111E+000   5.78756590E-010    4523.28  <-- SCF
      3  -3.54159358E+003 -2.02860671E+000  -1.25815753E-008    4645.01  <-- SCF
      4  -3.54159358E+003 -2.02848407E+000  -5.75073761E-010    4762.63  <-- SCF
------------------------------------------------------------------------ <-- SCF
 
Final energy, E             =  -3541.591667874     eV
Final free energy (E-TS)    =  -3541.593581796     eV
(energies not corrected for finite basis set)
 
NB est. 0K energy (E-0.5TS)      =  -3541.592624835     eV
 
 For future reference: finite basis dEtot/dlog(Ecut) =      -0.012412eV
 Total energy corrected for finite basis set =   -3541.593581 eV

 ************************** Forces **************************
 *                                                          *
 *               Cartesian components (eV/A)                *
 * -------------------------------------------------------- *
 *                         x            y            z      *
 *                                                          *
 * Be              1      0.05452      0.05917     -0.00156 *
 * C               1     -0.05619      0.23494      0.01555 *
 * C               2     -0.19480     -0.00767      0.01118 *
 * C               3      0.04014      0.13871      0.00401 *
 * C               4      0.19439      0.03076      0.01456 *
 * C               5      0.12303      0.03395      0.01263 *
 * C               6      0.03261     -0.25363     -0.02028 *
 * C               7      0.19187     -0.00294     -0.02122 *
 * C               8     -0.05352     -0.15182     -0.00648 *
 * C               9     -0.19384     -0.05271     -0.00500 *
 * C              10     -0.11174     -0.03786      0.00941 *
 * C              11     -0.09966     -0.08695      0.00719 *
 * C              12     -0.13176      0.08603      0.00541 *
 * C              13     -0.15171      0.10461     -0.00010 *
 * C              14      0.13789      0.14365     -0.03184 *
 * C              15      0.06591      0.03221     -0.03239 *
 * C              16      0.11739      0.09490      0.00029 *
 * C              17      0.13266     -0.08436      0.00233 *
 * C              18      0.13050     -0.10544      0.00028 *
 * C              19     -0.13854     -0.14685      0.01764 *
 * C              20     -0.08916     -0.02871      0.01840 *
 *                                                          *
 ************************************************************

 ***************** Stress Tensor *****************
 *                                               *
 *          Cartesian components (GPa)           *
 * --------------------------------------------- *
 *             x             y             z     *
 *                                               *
 *  x      0.892286     -0.053191     -0.085796  *
 *  y     -0.053191      0.637052      0.007845  *
 *  z     -0.085796      0.007845     -0.873354  *
 *                                               *
 *  Pressure:   -0.2187                          *
 *                                               *
 *************************************************

 Pseudo atomic calculation performed for Be 1s2 2s2

 Converged in 15 iterations to a total energy of -388.4527 eV

 Pseudo atomic calculation performed for C 2s2 2p2

 Converged in 17 iterations to a total energy of -148.5252 eV
Charge spilling parameter for spin component 1 = 0.94%

            Orbital Populations       
     Ion    Atom   Orbital             Charge
  -------------------------------------------
     Be     1      S                    2.000
     Be     1      S                    1.117
     Be     1      Px                  -0.047
     Be     1      Py                  -0.046
     Be     1      Pz                   0.785
      C     1      S                    1.057
      C     1      Px                   1.006
      C     1      Py                   0.973
      C     1      Pz                   0.974
      C     2      S                    1.058
      C     2      Px                   0.987
      C     2      Py                   0.991
      C     2      Pz                   0.973
      C     3      S                    1.059
      C     3      Px                   0.972
      C     3      Py                   1.007
      C     3      Pz                   0.973
      C     4      S                    1.059
      C     4      Px                   0.980
      C     4      Py                   0.997
      C     4      Pz                   0.973
      C     5      S                    1.059
      C     5      Px                   1.002
      C     5      Py                   0.977
      C     5      Pz                   0.973
      C     6      S                    1.056
      C     6      Px                   1.005
      C     6      Py                   0.973
      C     6      Pz                   0.974
      C     7      S                    1.059
      C     7      Px                   0.987
      C     7      Py                   0.991
      C     7      Pz                   0.973
      C     8      S                    1.059
      C     8      Px                   0.972
      C     8      Py                   1.006
      C     8      Pz                   0.973
      C     9      S                    1.059
      C     9      Px                   0.980
      C     9      Py                   0.999
      C     9      Pz                   0.973
      C    10      S                    1.058
      C    10      Px                   1.001
      C    10      Py                   0.977
      C    10      Pz                   0.973
      C    11      S                    1.056
      C    11      Px                   1.003
      C    11      Py                   0.975
      C    11      Pz                   0.974
      C    12      S                    1.059
      C    12      Px                   0.983
      C    12      Py                   0.996
      C    12      Pz                   0.973
      C    13      S                    1.059
      C    13      Px                   0.971
      C    13      Py                   1.006
      C    13      Pz                   0.973
      C    14      S                    1.059
      C    14      Px                   0.984
      C    14      Py                   0.994
      C    14      Pz                   0.973
      C    15      S                    1.058
      C    15      Px                   1.002
      C    15      Py                   0.975
      C    15      Pz                   0.973
      C    16      S                    1.056
      C    16      Px                   1.004
      C    16      Py                   0.976
      C    16      Pz                   0.974
      C    17      S                    1.059
      C    17      Px                   0.983
      C    17      Py                   0.994
      C    17      Pz                   0.973
      C    18      S                    1.059
      C    18      Px                   0.971
      C    18      Py                   1.008
      C    18      Pz                   0.973
      C    19      S                    1.059
      C    19      Px                   0.983
      C    19      Py                   0.994
      C    19      Pz                   0.973
      C    20      S                    1.058
      C    20      Px                   1.004
      C    20      Py                   0.975
      C    20      Pz                   0.973
  -------------------------------------------
                           Total:      83.999
  -------------------------------------------

     Atomic Populations (Mulliken)
     -----------------------------
Species          Ion     s       p       d       f      Total   Charge (e)
==========================================================================
  Be              1     3.117   0.692   0.000   0.000   3.809     0.191
  C               1     1.057   2.953   0.000   0.000   4.010    -0.010
  C               2     1.058   2.950   0.000   0.000   4.008    -0.008
  C               3     1.059   2.952   0.000   0.000   4.011    -0.011
  C               4     1.059   2.950   0.000   0.000   4.008    -0.008
  C               5     1.059   2.952   0.000   0.000   4.010    -0.010
  C               6     1.056   2.952   0.000   0.000   4.008    -0.008
  C               7     1.059   2.951   0.000   0.000   4.010    -0.010
  C               8     1.059   2.951   0.000   0.000   4.009    -0.009
  C               9     1.059   2.951   0.000   0.000   4.010    -0.010
  C              10     1.058   2.951   0.000   0.000   4.009    -0.009
  C              11     1.056   2.953   0.000   0.000   4.009    -0.009
  C              12     1.059   2.951   0.000   0.000   4.010    -0.010
  C              13     1.059   2.951   0.000   0.000   4.009    -0.009
  C              14     1.059   2.951   0.000   0.000   4.011    -0.011
  C              15     1.058   2.950   0.000   0.000   4.008    -0.008
  C              16     1.056   2.954   0.000   0.000   4.010    -0.010
  C              17     1.059   2.950   0.000   0.000   4.008    -0.008
  C              18     1.059   2.952   0.000   0.000   4.011    -0.011
  C              19     1.059   2.950   0.000   0.000   4.009    -0.009
  C              20     1.058   2.951   0.000   0.000   4.010    -0.010
==========================================================================

                 Bond                   Population      Length (A)
======================================================================
              C 6  -- C 16                   2.20        1.42075
              C 1  -- C 11                   2.20        1.42104
              C 4  -- C 14                   2.20        1.42273
              C 9  -- C 19                   2.20        1.42296
              C 3  -- C 13                   2.20        1.42306
              C 8  -- C 18                   2.20        1.42309
              C 5  -- C 15                   2.20        1.42314
              C 7  -- C 17                   2.20        1.42359
              C 10 -- C 20                   2.20        1.42360
              C 2  -- C 12                   2.20        1.42371
              C 2  -- C 11                   0.88        1.43652
              C 7  -- C 16                   0.87        1.43718
              C 6  -- C 15                   0.87        1.43959
              C 10 -- C 19                   0.87        1.43978
              C 1  -- C 20                   0.87        1.43991
              C 5  -- C 14                   0.87        1.44011
              C 3  -- C 12                   0.87        1.44190
              C 8  -- C 17                   0.88        1.44194
              C 4  -- C 13                   0.87        1.44403
              C 9  -- C 18                   0.87        1.44413
======================================================================


Writing analysis data to BeC_tube+wire_1400ev.castep_bin

Writing model to BeC_tube+wire_1400ev.check
 
 A BibTeX formatted list of references used in this run has been written to 
 BeC_tube+wire_1400ev.bib
 
Initialisation time =     10.57 s
Calculation time    =   4963.73 s
Finalisation time   =     44.99 s
Total time          =   5019.29 s
Peak Memory Use     = 1814968 kB
  
Overall parallel efficiency rating: Poor (45%)                                  
  
Data was distributed by:-
G-vector (4-way); efficiency rating: Poor (46%)                                 
k-point (64-way); efficiency rating: Excellent (96%)                            
