 +-------------------------------------------------+
 |                                                 |
 |      CCC   AA    SSS  TTTTT  EEEEE  PPPP        |
 |     C     A  A  S       T    E      P   P       |
 |     C     AAAA   SS     T    EEE    PPPP        |
 |     C     A  A     S    T    E      P           |
 |      CCC  A  A  SSS     T    EEEEE  P           |
 |                                                 |
 +-------------------------------------------------+
 |                                                 |
 | Welcome to Academic Release CASTEP version 22.1 |          
 | Ab Initio Total Energy Program                  |
 |                                                 |
 | Authors:                                        |
 | M. Segall, M. Probert, C. Pickard, P. Hasnip,   |
 | S. Clark, K. Refson, J. R. Yates, M. Payne      |
 |                                                 |
 | Contributors:                                   |
 | P. Lindan, P. Haynes, J. White, V. Milman,      |
 | N. Govind, M. Gibson, P. Tulip, V. Cocula,      |
 | B. Montanari, D. Quigley, M. Glover,            |
 | L. Bernasconi, A. Perlov, M. Plummer,           |
 | E. McNellis, J. Meyer, J. Gale, D. Jochym       |
 | J. Aarons, B. Walker, R. Gillen, D. Jones       |
 | T. Green, I. J. Bush, C. J. Armstrong,          |
 | E. J. Higgins, E. L. Brown, M. S. McFly,        |
 | J. Wilkins, B-C. Shih, P. J. P. Byrne,          |
 | R. J. Maurer, J. C. Womack, J. Dziedzic,        |
 | A. Bartok-Partay, L. LeBlanc, T. K. Stenczel,   |
 | J. Kermode, S. Sturniolo                        |
 |                                                 |
 | Copyright (c) 2000 - 2021                       |
 |                                                 |
 |     Distributed under license from Cambridge    |
 |     Enterprise for academic use only.           |
 |                                                 |
 | Please cite                                     |
 |                                                 |
 |     "First principles methods using CASTEP"     |
 |                                                 |
 |         Zeitschrift fuer Kristallographie       |
 |           220(5-6) pp. 567-570 (2005)           |
 |                                                 |
 | S. J. Clark, M. D. Segall, C. J. Pickard,       |
 | P. J. Hasnip, M. J. Probert, K. Refson,         |
 | M. C. Payne                                     |
 |                                                 |
 |       in all publications arising from          |
 |              your use of CASTEP                 |
 |                                                 |
 +-------------------------------------------------+
 |                                                 |
 |              http://www.castep.org              |
 |                                                 |
 +-------------------------------------------------+



 Compiled for linux_x86_64_gfortran10 on Thu, 07 Oct 2021 22:56:02 +0100
 from code version f361359b0+  default  Mon Sep 27 15:13:22 2021 +0100
 Compiler: GNU Fortran 10.2.0; Optimisation: fast
 MATHLIBS: openblas (LAPACK version 3.9.0)
 FFT Lib : fftw3 version fftw-3.3.8-sse2-avx-avx2-avx2_128
 Fundamental constants values: CODATA 2014

 Run started: Tue, 22 Mar 2022 15:25:54 +0000

 Atomic calculation performed for Be: 1s2 2s2

 Converged in 45 iterations to an ae energy of -398.180 eV

   ============================================================                
   | Pseudopotential Report - Date of generation 22-03-2022   |                
   ------------------------------------------------------------                
   | Element: Be Ionic charge:  4.00 Level of theory: PBE     |                
   | Atomic Solver: Koelling-Harmon                           |                
   |                                                          |                
   |               Reference Electronic Structure             |                
   |         Orbital         Occupation         Energy        |                
   |            1s              2.000           -3.903        |                
   |            2s              2.000           -0.206        |                
   |                                                          |                
   |                 Pseudopotential Definition               |                
   |        Beta     l      e      Rc     scheme   norm       |                
   |          1      0   -3.903   0.996     qc      0         |                
   |          2      0   -0.206   0.996     qc      0         |                
   |          3      0    0.250   0.996     qc      0         |                
   |          4      1    0.000   0.996     qc      0         |                
   |          5      1    0.250   0.996     qc      0         |                
   |         loc     2    0.000   0.996     pn      0         |                
   |                                                          |                
   | Augmentation charge Rinner = 0.702                       |                
   | No partial core correction                               |                
   ------------------------------------------------------------                
   | "2|1.0|14|16|18|10U:20:21(qc=7)"                         |                
   ------------------------------------------------------------                
   |      Author: Chris J. Pickard, Cambridge University      |                
   ============================================================                

 Atomic calculation performed for C: 1s2 2s2 2p2

 Converged in 54 iterations to an ae energy of -1027.632 eV

   ============================================================                
   | Pseudopotential Report - Date of generation 22-03-2022   |                
   ------------------------------------------------------------                
   | Element: C Ionic charge:  4.00 Level of theory: PBE      |                
   | Atomic Solver: Koelling-Harmon                           |                
   |                                                          |                
   |               Reference Electronic Structure             |                
   |         Orbital         Occupation         Energy        |                
   |            2s              2.000           -0.505        |                
   |            2p              2.000           -0.194        |                
   |                                                          |                
   |                 Pseudopotential Definition               |                
   |        Beta     l      e      Rc     scheme   norm       |                
   |          1      0   -0.505   1.395     qc      0         |                
   |          2      0    0.250   1.395     qc      0         |                
   |          3      1   -0.194   1.395     qc      0         |                
   |          4      1    0.250   1.395     qc      0         |                
   |         loc     2    0.000   1.395     pn      0         |                
   |                                                          |                
   | Augmentation charge Rinner = 0.983                       |                
   | Partial core correction Rc = 0.983                       |                
   ------------------------------------------------------------                
   | "2|1.4|10|12|13|20:21(qc=7)"                             |                
   ------------------------------------------------------------                
   |      Author: Chris J. Pickard, Cambridge University      |                
   ============================================================                

 Pseudo atomic calculation performed for Be 1s2 2s2

 Converged in 15 iterations to a total energy of -388.4561 eV

 Pseudo atomic calculation performed for C 2s2 2p2

 Converged in 17 iterations to a total energy of -148.5254 eV
 Calculation parallelised over 256 processes.
 Data is distributed by G-vector(4-way) and k-point(64-way)

 ************************************ Title ************************************
 

 ***************************** General Parameters ******************************
  
 output verbosity                               : normal  (1)
 write checkpoint data to                       : BeC_tube+wire_1500ev.check
 type of calculation                            : single point energy
 stress calculation                             : on
 density difference calculation                 : off
 electron localisation func (ELF) calculation   : off
 Hirshfeld analysis                             : off
 polarisation (Berry phase) analysis            : off
 molecular orbital projected DOS                : off
 deltaSCF calculation                           : off
 unlimited duration calculation
 timing information                             : on
 memory usage estimate                          : on
 write extra output files                       : on
 write final potential to formatted file        : off
 write final density to formatted file          : off
 write BibTeX reference list                    : on
 write OTFG pseudopotential files               : on
 write electrostatic potential file             : on
 write bands file                               : on
 checkpoint writing                             : both castep_bin and check files
  
 output         length unit                     : A
 output           mass unit                     : amu
 output           time unit                     : ps
 output         charge unit                     : e
 output           spin unit                     : hbar/2
 output         energy unit                     : eV
 output          force unit                     : eV/A
 output       velocity unit                     : A/ps
 output       pressure unit                     : GPa
 output     inv_length unit                     : 1/A
 output      frequency unit                     : cm-1
 output force constant unit                     : eV/A**2
 output         volume unit                     : A**3
 output   IR intensity unit                     : (D/A)**2/amu
 output         dipole unit                     : D
 output         efield unit                     : eV/A/e
 output        entropy unit                     : J/mol/K
 output    efield chi2 unit                     : pm/V
  
 wavefunctions paging                           : none
 random number generator seed                   : randomised (152554677)
 data distribution                              : k-point only
 optimization strategy                          : maximize speed(+++)

 *********************** Exchange-Correlation Parameters ***********************
  
 using functional                               : Perdew Burke Ernzerhof
 relativistic treatment                         : Koelling-Harmon
 DFT+D: Semi-empirical dispersion correction    : off

 ************************* Pseudopotential Parameters **************************
  
 pseudopotential representation                 : reciprocal space
 <beta|phi> representation                      : reciprocal space
 spin-orbit coupling                            : off

 **************************** Basis Set Parameters *****************************
  
 plane wave basis set cut-off                   :  1500.0000   eV
 size of standard grid                          :     2.0000
 size of   fine   gmax                          :    39.6839   1/A
 largest prime factor in FFT                    :          5
 finite basis set correction                    : automatic
 number of sample energies                      :          3
           sample  spacing                      :     5.0000   eV

 **************************** Electronic Parameters ****************************
  
 number of  electrons                           :  84.00    
 net charge of system                           :  0.000    
 treating system as non-spin-polarized
 number of bands                                :         77

 ********************* Electronic Minimization Parameters **********************
  
 Method: Treating system as metallic with density mixing treatment of electrons,
         and number of  SD  steps               :          1
         and number of  CG  steps               :          4
  
 total energy / atom convergence tol.           : 0.1000E-04   eV
 eigen-energy convergence tolerance             : 0.1000E-05   eV
 max force / atom convergence tol.              : ignored
 convergence tolerance window                   :          3   cycles
 max. number of SCF cycles                      :         30
 number of fixed-spin iterations                :         10
 smearing scheme                                : Gaussian
 smearing width                                 : 0.5000E-01   eV
 Fermi energy convergence tolerance             : 0.2721E-13   eV
 periodic dipole correction                     : NONE

 ************************** Density Mixing Parameters **************************
  
 density-mixing scheme                          : Pulay
 max. length of mixing history                  :         20
 charge density mixing amplitude                : 0.8000    
 cut-off energy for mixing                      :  1500.       eV
 charge density mixing g-vector                 :  1.500       1/A

 *********************** Population Analysis Parameters ************************
  
 Population analysis with cutoff                :  3.000       A
 Population analysis output                     : summary and pdos components

 ******************************* Developer Code ********************************
  
 PARALLEL: kpoint=64 : ENDPARALLEL

 *******************************************************************************
  

                           -------------------------------
                                      Unit Cell
                           -------------------------------
        Real Lattice(A)                      Reciprocal Lattice(1/A)
    19.1230500    -0.7864580    -0.0047370        0.327993637  -0.013922938   0.000679655
     0.7854600    18.5034760    -0.0046120        0.013940789   0.338976058  -0.000004143
    -0.0050600     0.0002380     2.4467730        0.000661279   0.000611992   2.567949094

                       Lattice parameters(A)       Cell Angles
                    a =     19.139216          alpha =   90.013725
                    b =     18.520140          beta  =   90.132799
                    c =      2.446778          gamma =   89.924318

                       Current cell volume =           867.284252       A**3
                                   density =             0.287364   AMU/A**3
                                           =             0.477179     g/cm^3

                           -------------------------------
                                     Cell Contents
                           -------------------------------
                         Total number of ions in cell =   21
                      Total number of species in cell =    2
                        Max number of any one species =   20

            xxxxxxxxxxxxxxxxxxxxxxxxxxxxxxxxxxxxxxxxxxxxxxxxxxxxxxxxxxxx
            x  Element    Atom        Fractional coordinates of atoms  x
            x            Number           u          v          w      x
            x----------------------------------------------------------x
            x  Be           1         0.457604   0.540465   0.378835   x 
            x  C            1         0.637640   0.516852   0.501116   x 
            x  C            2         0.590200   0.412531   0.000824   x 
            x  C            3         0.491425   0.357645   0.500567   x 
            x  C            4         0.379890   0.371681   0.000353   x 
            x  C            5         0.297847   0.450562   0.500339   x 
            x  C            6         0.276806   0.564321   0.000558   x 
            x  C            7         0.324272   0.668656   0.500952   x 
            x  C            8         0.422972   0.723645   0.001172   x 
            x  C            9         0.534531   0.709457   0.501323   x 
            x  C           10         0.616607   0.630656   0.001135   x 
            x  C           11         0.629078   0.478827   0.000963   x 
            x  C           12         0.561134   0.387077   0.500603   x 
            x  C           13         0.453499   0.354465   0.000219   x 
            x  C           14         0.347090   0.391699   0.500372   x 
            x  C           15         0.283165   0.486860   0.000431   x 
            x  C           16         0.285400   0.602315   0.500675   x 
            x  C           17         0.353265   0.694202   0.001106   x 
            x  C           18         0.460917   0.726674   0.501504   x 
            x  C           19         0.567378   0.689507   0.001383   x 
            x  C           20         0.631263   0.594329   0.501190   x 
            xxxxxxxxxxxxxxxxxxxxxxxxxxxxxxxxxxxxxxxxxxxxxxxxxxxxxxxxxxxx


                         No user defined ionic velocities

                           -------------------------------
                                   Details of Species
                           -------------------------------

                               Mass of species in AMU
                                    Be    9.0121870
                                    C   12.0107000

                          Electric Quadrupole Moment (Barn)
                                    Be    0.0528800 Isotope  9
                                    C    0.0332700 Isotope 11

                          Files used for pseudopotentials:
                                    Be 2|1.0|14|16|18|10U:20:21(qc=7)
                                    C 2|1.4|10|12|13|20:21(qc=7)

                           -------------------------------
                              k-Points For BZ Sampling
                           -------------------------------
                       MP grid size for SCF calculation is  1  1500
                            with an offset of   0.000  0.000  0.000
                       Number of kpoints used =           250

                           -------------------------------
                               Symmetry and Constraints
                           -------------------------------

                      Maximum deviation from symmetry =  0.00000         ANG

                      Number of symmetry operations   =           1
                      Number of ionic constraints     =           3
                      Point group of crystal =     1: C1, 1, 1
                      Space group of crystal =     1: P1, P 1

             Set iprint > 1 for details on symmetry rotations/translations

                         Centre of mass is constrained
             Set iprint > 1 for details of linear ionic constraints

                         Number of cell constraints= 6
                         Cell constraints are:  0 0 0 0 0 0

                         External pressure/stress (GPa)
                          0.00000   0.00000   0.00000
                                    0.00000   0.00000
                                              0.00000
  
+---------------- MEMORY AND SCRATCH DISK ESTIMATES PER PROCESS --------------+
|                                                     Memory          Disk    |
| Baseline code, static data and system overhead      597.0 MB         0.0 MB |
| BLAS internal memory storage                          0.0 MB         0.0 MB |
| Model and support data                              989.5 MB         0.0 MB |
| Electronic energy minimisation requirements         490.3 MB         0.0 MB |
| Force calculation requirements                       70.0 MB         0.0 MB |
| Stress calculation requirements                      77.4 MB         0.0 MB |
|                                               ----------------------------- |
| Approx. total storage required per process         2076.8 MB         0.0 MB |
|                                                                             |
| Requirements will fluctuate during execution and may exceed these estimates |
+-----------------------------------------------------------------------------+
Calculating finite basis set correction with  3 cut-off energies.
Calculating total energy with cut-off of 1490.000 eV.
Calculating approximate eigenstates for fixed initial Hamiltonian
Cut-off for approx. calculation is   89.988 eV
Improving approx. states at cut-off of  744.995 eV
Resetting cut-off to 1489.989 eV
------------------------------------------------------------------------ <-- SCF
SCF loop      Energy           Fermi           Energy gain       Timer   <-- SCF
                               energy          per atom          (sec)   <-- SCF
------------------------------------------------------------------------ <-- SCF
Initial  -3.25712485E+003  0.00000000E+000                       197.43  <-- SCF
      1  -3.55020443E+003 -4.20822068E+000   1.39561704E+001     469.40  <-- SCF
      2  -3.55023382E+003 -4.20846848E+000   1.39935420E-003     693.36  <-- SCF
      3  -3.54215423E+003 -3.74495677E+000  -3.84742230E-001     955.08  <-- SCF
      4  -3.54181021E+003 -3.44737569E+000  -1.63818774E-002    1233.90  <-- SCF
      5  -3.54171867E+003 -3.12244452E+000  -4.35901071E-003    1509.63  <-- SCF
      6  -3.54167092E+003 -3.08154400E+000  -2.27394362E-003    1775.72  <-- SCF
      7  -3.54162445E+003 -2.88728090E+000  -2.21275685E-003    2042.87  <-- SCF
      8  -3.54156365E+003 -2.50494467E+000  -2.89514940E-003    2299.78  <-- SCF
      9  -3.54155616E+003 -2.40039425E+000  -3.56875576E-004    2559.02  <-- SCF
     10  -3.54157069E+003 -2.27610266E+000   6.91867923E-004    2795.70  <-- SCF
     11  -3.54158203E+003 -2.17585921E+000   5.40089192E-004    3033.37  <-- SCF
     12  -3.54158679E+003 -2.11856986E+000   2.26551648E-004    3263.42  <-- SCF
     13  -3.54158933E+003 -2.10033560E+000   1.20989570E-004    3484.26  <-- SCF
     14  -3.54159020E+003 -2.07324403E+000   4.16717729E-005    3701.52  <-- SCF
     15  -3.54159023E+003 -2.05410897E+000   1.25078462E-006    3919.16  <-- SCF
     16  -3.54159122E+003 -2.04017215E+000   4.72190500E-005    4124.73  <-- SCF
     17  -3.54159250E+003 -2.03122732E+000   6.11899047E-005    4335.26  <-- SCF
     18  -3.54159319E+003 -2.02983751E+000   3.26867809E-005    4542.19  <-- SCF
     19  -3.54159363E+003 -2.02935140E+000   2.07479755E-005    4751.48  <-- SCF
     20  -3.54159375E+003 -2.02908865E+000   5.98386161E-006    4965.94  <-- SCF
     21  -3.54159385E+003 -2.02885145E+000   4.61274092E-006    5179.03  <-- SCF
     22  -3.54159389E+003 -2.02861053E+000   2.01778725E-006    5389.52  <-- SCF
------------------------------------------------------------------------ <-- SCF
 
Final energy, E             =  -3541.591977918     eV
Final free energy (E-TS)    =  -3541.593891635     eV
(energies not corrected for finite basis set)
 
NB est. 0K energy (E-0.5TS)      =  -3541.592934777     eV
 
Calculating total energy with cut-off of 1495.000 eV.
------------------------------------------------------------------------ <-- SCF
SCF loop      Energy           Fermi           Energy gain       Timer   <-- SCF
                               energy          per atom          (sec)   <-- SCF
------------------------------------------------------------------------ <-- SCF
Initial  -3.54159202E+003  0.00000000E+000                      5445.30  <-- SCF
      1  -3.54159396E+003 -2.02930084E+000   9.25574978E-005    5632.83  <-- SCF
      2  -3.54159396E+003 -2.02930084E+000   2.42900992E-009    5851.92  <-- SCF
      3  -3.54159396E+003 -2.02871524E+000  -2.20286212E-008    6042.99  <-- SCF
      4  -3.54159396E+003 -2.02889926E+000  -2.03270068E-009    6219.97  <-- SCF
------------------------------------------------------------------------ <-- SCF
 
Final energy, E             =  -3541.592048996     eV
Final free energy (E-TS)    =  -3541.593963492     eV
(energies not corrected for finite basis set)
 
NB est. 0K energy (E-0.5TS)      =  -3541.593006244     eV
 
Calculating total energy with cut-off of 1500.000 eV.
------------------------------------------------------------------------ <-- SCF
SCF loop      Energy           Fermi           Energy gain       Timer   <-- SCF
                               energy          per atom          (sec)   <-- SCF
------------------------------------------------------------------------ <-- SCF
Initial  -3.54159205E+003  0.00000000E+000                      6275.31  <-- SCF
      1  -3.54159399E+003 -2.02823502E+000   9.25788645E-005    6429.46  <-- SCF
      2  -3.54159399E+003 -2.02823502E+000   5.46053068E-010    6600.58  <-- SCF
      3  -3.54159399E+003 -2.02863169E+000  -1.18829795E-008    6771.59  <-- SCF
      4  -3.54159399E+003 -2.02851243E+000  -4.20579081E-010    6943.50  <-- SCF
------------------------------------------------------------------------ <-- SCF
 
Final energy, E             =  -3541.592078904     eV
Final free energy (E-TS)    =  -3541.593992844     eV
(energies not corrected for finite basis set)
 
NB est. 0K energy (E-0.5TS)      =  -3541.593035874     eV
 
 For future reference: finite basis dEtot/dlog(Ecut) =      -0.015022eV
 Total energy corrected for finite basis set =   -3541.593992 eV

 ************************** Forces **************************
 *                                                          *
 *               Cartesian components (eV/A)                *
 * -------------------------------------------------------- *
 *                         x            y            z      *
 *                                                          *
 * Be              1     -0.03468      0.06369     -0.00003 *
 * C               1     -0.05183      0.23473      0.01547 *
 * C               2     -0.19032     -0.00789      0.01110 *
 * C               3      0.04462      0.13849      0.00394 *
 * C               4      0.19890      0.03055      0.01449 *
 * C               5      0.12750      0.03371      0.01256 *
 * C               6      0.03700     -0.25383     -0.02039 *
 * C               7      0.19634     -0.00318     -0.02129 *
 * C               8     -0.04906     -0.15205     -0.00656 *
 * C               9     -0.18936     -0.05294     -0.00508 *
 * C              10     -0.10730     -0.03808      0.00933 *
 * C              11     -0.09523     -0.08718      0.00711 *
 * C              12     -0.12728      0.08581      0.00534 *
 * C              13     -0.14723      0.10439     -0.00018 *
 * C              14      0.14240      0.14343     -0.03192 *
 * C              15      0.07038      0.03196     -0.03248 *
 * C              16      0.12183      0.09473      0.00022 *
 * C              17      0.13713     -0.08460      0.00226 *
 * C              18      0.13498     -0.10568      0.00021 *
 * C              19     -0.13407     -0.14709      0.01756 *
 * C              20     -0.08472     -0.02895      0.01832 *
 *                                                          *
 ************************************************************

 ***************** Stress Tensor *****************
 *                                               *
 *          Cartesian components (GPa)           *
 * --------------------------------------------- *
 *             x             y             z     *
 *                                               *
 *  x      0.892218     -0.053170     -0.085839  *
 *  y     -0.053170      0.636946      0.007803  *
 *  z     -0.085839      0.007803     -0.873460  *
 *                                               *
 *  Pressure:   -0.2186                          *
 *                                               *
 *************************************************

 Pseudo atomic calculation performed for Be 1s2 2s2

 Converged in 15 iterations to a total energy of -388.4561 eV

 Pseudo atomic calculation performed for C 2s2 2p2

 Converged in 17 iterations to a total energy of -148.5254 eV
Charge spilling parameter for spin component 1 = 0.94%

            Orbital Populations       
     Ion    Atom   Orbital             Charge
  -------------------------------------------
     Be     1      S                    2.000
     Be     1      S                    1.117
     Be     1      Px                  -0.047
     Be     1      Py                  -0.046
     Be     1      Pz                   0.785
      C     1      S                    1.057
      C     1      Px                   1.006
      C     1      Py                   0.973
      C     1      Pz                   0.974
      C     2      S                    1.058
      C     2      Px                   0.987
      C     2      Py                   0.991
      C     2      Pz                   0.973
      C     3      S                    1.059
      C     3      Px                   0.972
      C     3      Py                   1.007
      C     3      Pz                   0.973
      C     4      S                    1.059
      C     4      Px                   0.980
      C     4      Py                   0.997
      C     4      Pz                   0.973
      C     5      S                    1.059
      C     5      Px                   1.002
      C     5      Py                   0.977
      C     5      Pz                   0.973
      C     6      S                    1.056
      C     6      Px                   1.005
      C     6      Py                   0.973
      C     6      Pz                   0.974
      C     7      S                    1.059
      C     7      Px                   0.987
      C     7      Py                   0.991
      C     7      Pz                   0.973
      C     8      S                    1.058
      C     8      Px                   0.972
      C     8      Py                   1.006
      C     8      Pz                   0.973
      C     9      S                    1.059
      C     9      Px                   0.980
      C     9      Py                   0.999
      C     9      Pz                   0.973
      C    10      S                    1.058
      C    10      Px                   1.001
      C    10      Py                   0.977
      C    10      Pz                   0.973
      C    11      S                    1.056
      C    11      Px                   1.003
      C    11      Py                   0.975
      C    11      Pz                   0.974
      C    12      S                    1.059
      C    12      Px                   0.983
      C    12      Py                   0.996
      C    12      Pz                   0.973
      C    13      S                    1.059
      C    13      Px                   0.971
      C    13      Py                   1.006
      C    13      Pz                   0.973
      C    14      S                    1.059
      C    14      Px                   0.984
      C    14      Py                   0.994
      C    14      Pz                   0.973
      C    15      S                    1.058
      C    15      Px                   1.002
      C    15      Py                   0.975
      C    15      Pz                   0.973
      C    16      S                    1.056
      C    16      Px                   1.004
      C    16      Py                   0.976
      C    16      Pz                   0.974
      C    17      S                    1.059
      C    17      Px                   0.983
      C    17      Py                   0.994
      C    17      Pz                   0.973
      C    18      S                    1.059
      C    18      Px                   0.971
      C    18      Py                   1.008
      C    18      Pz                   0.973
      C    19      S                    1.059
      C    19      Px                   0.983
      C    19      Py                   0.994
      C    19      Pz                   0.973
      C    20      S                    1.058
      C    20      Px                   1.004
      C    20      Py                   0.975
      C    20      Pz                   0.973
  -------------------------------------------
                           Total:      83.999
  -------------------------------------------

     Atomic Populations (Mulliken)
     -----------------------------
Species          Ion     s       p       d       f      Total   Charge (e)
==========================================================================
  Be              1     3.117   0.692   0.000   0.000   3.809     0.191
  C               1     1.057   2.953   0.000   0.000   4.010    -0.010
  C               2     1.058   2.950   0.000   0.000   4.008    -0.008
  C               3     1.059   2.952   0.000   0.000   4.011    -0.011
  C               4     1.059   2.950   0.000   0.000   4.008    -0.008
  C               5     1.059   2.952   0.000   0.000   4.010    -0.010
  C               6     1.056   2.952   0.000   0.000   4.008    -0.008
  C               7     1.059   2.951   0.000   0.000   4.010    -0.010
  C               8     1.058   2.951   0.000   0.000   4.009    -0.009
  C               9     1.059   2.951   0.000   0.000   4.010    -0.010
  C              10     1.058   2.951   0.000   0.000   4.009    -0.009
  C              11     1.056   2.953   0.000   0.000   4.009    -0.009
  C              12     1.059   2.951   0.000   0.000   4.010    -0.010
  C              13     1.059   2.951   0.000   0.000   4.009    -0.009
  C              14     1.059   2.951   0.000   0.000   4.010    -0.010
  C              15     1.058   2.950   0.000   0.000   4.008    -0.008
  C              16     1.056   2.954   0.000   0.000   4.010    -0.010
  C              17     1.059   2.950   0.000   0.000   4.008    -0.008
  C              18     1.059   2.952   0.000   0.000   4.011    -0.011
  C              19     1.059   2.950   0.000   0.000   4.009    -0.009
  C              20     1.058   2.951   0.000   0.000   4.010    -0.010
==========================================================================

                 Bond                   Population      Length (A)
======================================================================
              C 6  -- C 16                   2.20        1.42075
              C 1  -- C 11                   2.20        1.42104
              C 4  -- C 14                   2.20        1.42273
              C 9  -- C 19                   2.20        1.42296
              C 3  -- C 13                   2.20        1.42306
              C 8  -- C 18                   2.20        1.42309
              C 5  -- C 15                   2.20        1.42314
              C 7  -- C 17                   2.20        1.42359
              C 10 -- C 20                   2.20        1.42360
              C 2  -- C 12                   2.20        1.42371
              C 2  -- C 11                   0.88        1.43652
              C 7  -- C 16                   0.87        1.43718
              C 6  -- C 15                   0.87        1.43959
              C 10 -- C 19                   0.87        1.43978
              C 1  -- C 20                   0.87        1.43991
              C 5  -- C 14                   0.87        1.44011
              C 3  -- C 12                   0.87        1.44190
              C 8  -- C 17                   0.88        1.44194
              C 4  -- C 13                   0.87        1.44403
              C 9  -- C 18                   0.87        1.44413
======================================================================


Writing analysis data to BeC_tube+wire_1500ev.castep_bin

Writing model to BeC_tube+wire_1500ev.check
 
 A BibTeX formatted list of references used in this run has been written to 
 BeC_tube+wire_1500ev.bib
 
Initialisation time =     10.34 s
Calculation time    =   7172.75 s
Finalisation time   =     33.65 s
Total time          =   7216.75 s
Peak Memory Use     = 1905984 kB
  
Overall parallel efficiency rating: Terrible (32%)                              
  
Data was distributed by:-
G-vector (4-way); efficiency rating: Terrible (33%)                             
k-point (64-way); efficiency rating: Excellent (93%)                            
